[Molden Format]
[Title]
Written by TeraChem
[Atoms] Angs
Mn   1   15      0.18489   -0.17423    0.11016
P   2   15     -0.19724    2.13607    0.49838
H   3   1     -0.76716    2.49594    1.74047
H   4   1      0.90181    3.02236    0.52746
H   5   1     -1.04302    2.90888   -0.33041
P   6   15      2.54171    0.13902   -0.06460
H   7   1      3.09062    1.26261    0.59252
H   8   1      3.37234   -0.84930    0.50861
H   9   1      3.21831    0.27783   -1.29891
P   10   15      0.49569   -2.53587   -0.10393
H   11   1      1.76704   -3.09808    0.15221
H   12   1     -0.24778   -3.32981    0.79747
H   13   1      0.20592   -3.24251   -1.29384
P   14   15     -2.15440   -0.50534    0.39351
H   15   1     -2.77358   -1.65900   -0.13965
H   16   1     -2.62742   -0.63961    1.71793
H   17   1     -3.11420    0.42625   -0.06251
C   18   6      0.07558    0.10185   -2.24865
C   19   6      0.57797    1.44376   -2.42284
C   20   6     -1.31660   -0.06526   -2.58164
C   21   6      0.94425   -0.90721   -2.80683
N   22   7      1.66437   -1.73484   -3.20034
N   23   7     -2.45159   -0.21877   -2.80032
N   24   7      1.00741    2.52502   -2.50565
S   25   16      0.66394   -0.52331    2.36359
C   26   6     -0.51876    0.18325    3.60270
C   27   6     -1.12877   -0.89941    4.49333
H   28   1     -1.76347   -0.44907    5.26782
H   29   1     -0.34573   -1.48335    4.98733
H   30   1     -1.74270   -1.59520    3.91036
H   31   1     -1.30813    0.74669    3.09524
H   32   1      0.04426    0.89786    4.21293
[GTO]
    1 0
 s    3 1.00
            5.914000            -0.376451
            1.605000             0.772479
            0.626000             0.476935
 s    4 1.00
            5.914000             0.211997
            1.605000            -0.519947
            0.626000            -0.585768
            0.111500             1.100396
 s    1 1.00
            0.038000             1.000000
 p    3 1.00
           18.200000            -0.044790
            2.141000             0.626031
            0.700900             0.469633
 p    1 1.00
            0.069000             1.000000
 p    1 1.00
            0.021000             1.000000
 d    4 1.00
           32.270000             0.034158
            8.875000             0.176110
            2.890000             0.439430
            0.876100             0.594327
 d    1 1.00
            0.212000             1.000000

    2 0
 s    6 1.00
        19413.300000             0.001852
         2909.420000             0.014206
          661.364000             0.069999
          185.759000             0.240079
           59.194300             0.484762
           20.031000             0.335200
 s    6 1.00
          339.478000            -0.002782
           81.010100            -0.036050
           25.878000            -0.116631
            9.452210             0.096833
            3.665660             0.614418
            1.467460             0.403798
 s    3 1.00
            2.156230            -0.252924
            0.748997             0.032852
            0.283145             1.081255
 s    1 1.00
            0.099832             1.000000
 p    6 1.00
          339.478000             0.004565
           81.010100             0.033694
           25.878000             0.139755
            9.452210             0.339362
            3.665660             0.450921
            1.467460             0.238586
 p    3 1.00
            2.156230            -0.017765
            0.748997             0.274058
            0.283145             0.785422
 p    1 1.00
            0.099832             1.000000
 d    1 1.00
            0.550000             1.000000

    3 0
 s    3 1.00
           18.731137             0.033495
            2.825394             0.234727
            0.640122             0.813757
 s    1 1.00
            0.161278             1.000000

    4 0
 s    3 1.00
           18.731137             0.033495
            2.825394             0.234727
            0.640122             0.813757
 s    1 1.00
            0.161278             1.000000

    5 0
 s    3 1.00
           18.731137             0.033495
            2.825394             0.234727
            0.640122             0.813757
 s    1 1.00
            0.161278             1.000000

    6 0
 s    6 1.00
        19413.300000             0.001852
         2909.420000             0.014206
          661.364000             0.069999
          185.759000             0.240079
           59.194300             0.484762
           20.031000             0.335200
 s    6 1.00
          339.478000            -0.002782
           81.010100            -0.036050
           25.878000            -0.116631
            9.452210             0.096833
            3.665660             0.614418
            1.467460             0.403798
 s    3 1.00
            2.156230            -0.252924
            0.748997             0.032852
            0.283145             1.081255
 s    1 1.00
            0.099832             1.000000
 p    6 1.00
          339.478000             0.004565
           81.010100             0.033694
           25.878000             0.139755
            9.452210             0.339362
            3.665660             0.450921
            1.467460             0.238586
 p    3 1.00
            2.156230            -0.017765
            0.748997             0.274058
            0.283145             0.785422
 p    1 1.00
            0.099832             1.000000
 d    1 1.00
            0.550000             1.000000

    7 0
 s    3 1.00
           18.731137             0.033495
            2.825394             0.234727
            0.640122             0.813757
 s    1 1.00
            0.161278             1.000000

    8 0
 s    3 1.00
           18.731137             0.033495
            2.825394             0.234727
            0.640122             0.813757
 s    1 1.00
            0.161278             1.000000

    9 0
 s    3 1.00
           18.731137             0.033495
            2.825394             0.234727
            0.640122             0.813757
 s    1 1.00
            0.161278             1.000000

   10 0
 s    6 1.00
        19413.300000             0.001852
         2909.420000             0.014206
          661.364000             0.069999
          185.759000             0.240079
           59.194300             0.484762
           20.031000             0.335200
 s    6 1.00
          339.478000            -0.002782
           81.010100            -0.036050
           25.878000            -0.116631
            9.452210             0.096833
            3.665660             0.614418
            1.467460             0.403798
 s    3 1.00
            2.156230            -0.252924
            0.748997             0.032852
            0.283145             1.081255
 s    1 1.00
            0.099832             1.000000
 p    6 1.00
          339.478000             0.004565
           81.010100             0.033694
           25.878000             0.139755
            9.452210             0.339362
            3.665660             0.450921
            1.467460             0.238586
 p    3 1.00
            2.156230            -0.017765
            0.748997             0.274058
            0.283145             0.785422
 p    1 1.00
            0.099832             1.000000
 d    1 1.00
            0.550000             1.000000

   11 0
 s    3 1.00
           18.731137             0.033495
            2.825394             0.234727
            0.640122             0.813757
 s    1 1.00
            0.161278             1.000000

   12 0
 s    3 1.00
           18.731137             0.033495
            2.825394             0.234727
            0.640122             0.813757
 s    1 1.00
            0.161278             1.000000

   13 0
 s    3 1.00
           18.731137             0.033495
            2.825394             0.234727
            0.640122             0.813757
 s    1 1.00
            0.161278             1.000000

   14 0
 s    6 1.00
        19413.300000             0.001852
         2909.420000             0.014206
          661.364000             0.069999
          185.759000             0.240079
           59.194300             0.484762
           20.031000             0.335200
 s    6 1.00
          339.478000            -0.002782
           81.010100            -0.036050
           25.878000            -0.116631
            9.452210             0.096833
            3.665660             0.614418
            1.467460             0.403798
 s    3 1.00
            2.156230            -0.252924
            0.748997             0.032852
            0.283145             1.081255
 s    1 1.00
            0.099832             1.000000
 p    6 1.00
          339.478000             0.004565
           81.010100             0.033694
           25.878000             0.139755
            9.452210             0.339362
            3.665660             0.450921
            1.467460             0.238586
 p    3 1.00
            2.156230            -0.017765
            0.748997             0.274058
            0.283145             0.785422
 p    1 1.00
            0.099832             1.000000
 d    1 1.00
            0.550000             1.000000

   15 0
 s    3 1.00
           18.731137             0.033495
            2.825394             0.234727
            0.640122             0.813757
 s    1 1.00
            0.161278             1.000000

   16 0
 s    3 1.00
           18.731137             0.033495
            2.825394             0.234727
            0.640122             0.813757
 s    1 1.00
            0.161278             1.000000

   17 0
 s    3 1.00
           18.731137             0.033495
            2.825394             0.234727
            0.640122             0.813757
 s    1 1.00
            0.161278             1.000000

   18 0
 s    6 1.00
         3047.524900             0.001835
          457.369510             0.014037
          103.948690             0.068843
           29.210155             0.232184
            9.286663             0.467941
            3.163927             0.362312
 s    3 1.00
            7.868272            -0.119332
            1.881288            -0.160854
            0.544249             1.143456
 s    1 1.00
            0.168714             1.000000
 p    3 1.00
            7.868272             0.068999
            1.881288             0.316424
            0.544249             0.744308
 p    1 1.00
            0.168714             1.000000
 d    1 1.00
            0.800000             1.000000

   19 0
 s    6 1.00
         3047.524900             0.001835
          457.369510             0.014037
          103.948690             0.068843
           29.210155             0.232184
            9.286663             0.467941
            3.163927             0.362312
 s    3 1.00
            7.868272            -0.119332
            1.881288            -0.160854
            0.544249             1.143456
 s    1 1.00
            0.168714             1.000000
 p    3 1.00
            7.868272             0.068999
            1.881288             0.316424
            0.544249             0.744308
 p    1 1.00
            0.168714             1.000000
 d    1 1.00
            0.800000             1.000000

   20 0
 s    6 1.00
         3047.524900             0.001835
          457.369510             0.014037
          103.948690             0.068843
           29.210155             0.232184
            9.286663             0.467941
            3.163927             0.362312
 s    3 1.00
            7.868272            -0.119332
            1.881288            -0.160854
            0.544249             1.143456
 s    1 1.00
            0.168714             1.000000
 p    3 1.00
            7.868272             0.068999
            1.881288             0.316424
            0.544249             0.744308
 p    1 1.00
            0.168714             1.000000
 d    1 1.00
            0.800000             1.000000

   21 0
 s    6 1.00
         3047.524900             0.001835
          457.369510             0.014037
          103.948690             0.068843
           29.210155             0.232184
            9.286663             0.467941
            3.163927             0.362312
 s    3 1.00
            7.868272            -0.119332
            1.881288            -0.160854
            0.544249             1.143456
 s    1 1.00
            0.168714             1.000000
 p    3 1.00
            7.868272             0.068999
            1.881288             0.316424
            0.544249             0.744308
 p    1 1.00
            0.168714             1.000000
 d    1 1.00
            0.800000             1.000000

   22 0
 s    6 1.00
         4173.511000             0.001835
          627.457900             0.013995
          142.902100             0.068587
           40.234330             0.232241
           12.820210             0.469070
            4.390437             0.360455
 s    3 1.00
           11.626358            -0.114961
            2.716280            -0.169118
            0.772218             1.145852
 s    1 1.00
            0.212031             1.000000
 p    3 1.00
           11.626358             0.067580
            2.716280             0.323907
            0.772218             0.740895
 p    1 1.00
            0.212031             1.000000
 d    1 1.00
            0.800000             1.000000

   23 0
 s    6 1.00
         4173.511000             0.001835
          627.457900             0.013995
          142.902100             0.068587
           40.234330             0.232241
           12.820210             0.469070
            4.390437             0.360455
 s    3 1.00
           11.626358            -0.114961
            2.716280            -0.169118
            0.772218             1.145852
 s    1 1.00
            0.212031             1.000000
 p    3 1.00
           11.626358             0.067580
            2.716280             0.323907
            0.772218             0.740895
 p    1 1.00
            0.212031             1.000000
 d    1 1.00
            0.800000             1.000000

   24 0
 s    6 1.00
         4173.511000             0.001835
          627.457900             0.013995
          142.902100             0.068587
           40.234330             0.232241
           12.820210             0.469070
            4.390437             0.360455
 s    3 1.00
           11.626358            -0.114961
            2.716280            -0.169118
            0.772218             1.145852
 s    1 1.00
            0.212031             1.000000
 p    3 1.00
           11.626358             0.067580
            2.716280             0.323907
            0.772218             0.740895
 p    1 1.00
            0.212031             1.000000
 d    1 1.00
            0.800000             1.000000

   25 0
 s    6 1.00
        21917.100000             0.001869
         3301.490000             0.014230
          754.146000             0.069696
          212.711000             0.238487
           67.989600             0.483307
           23.051500             0.338074
 s    6 1.00
          423.735000            -0.002377
          100.710000            -0.031693
           32.159900            -0.113317
           11.807900             0.056090
            4.631100             0.592255
            1.870250             0.455006
 s    3 1.00
            2.615840            -0.250373
            0.922167             0.066957
            0.341287             1.054506
 s    1 1.00
            0.117167             1.000000
 p    6 1.00
          423.735000             0.004061
          100.710000             0.030681
           32.159900             0.130452
           11.807900             0.327205
            4.631100             0.452851
            1.870250             0.256042
 p    3 1.00
            2.615840            -0.014511
            0.922167             0.310263
            0.341287             0.754483
 p    1 1.00
            0.117167             1.000000
 d    1 1.00
            0.650000             1.000000

   26 0
 s    6 1.00
         3047.524900             0.001835
          457.369510             0.014037
          103.948690             0.068843
           29.210155             0.232184
            9.286663             0.467941
            3.163927             0.362312
 s    3 1.00
            7.868272            -0.119332
            1.881288            -0.160854
            0.544249             1.143456
 s    1 1.00
            0.168714             1.000000
 p    3 1.00
            7.868272             0.068999
            1.881288             0.316424
            0.544249             0.744308
 p    1 1.00
            0.168714             1.000000
 d    1 1.00
            0.800000             1.000000

   27 0
 s    6 1.00
         3047.524900             0.001835
          457.369510             0.014037
          103.948690             0.068843
           29.210155             0.232184
            9.286663             0.467941
            3.163927             0.362312
 s    3 1.00
            7.868272            -0.119332
            1.881288            -0.160854
            0.544249             1.143456
 s    1 1.00
            0.168714             1.000000
 p    3 1.00
            7.868272             0.068999
            1.881288             0.316424
            0.544249             0.744308
 p    1 1.00
            0.168714             1.000000
 d    1 1.00
            0.800000             1.000000

   28 0
 s    3 1.00
           18.731137             0.033495
            2.825394             0.234727
            0.640122             0.813757
 s    1 1.00
            0.161278             1.000000

   29 0
 s    3 1.00
           18.731137             0.033495
            2.825394             0.234727
            0.640122             0.813757
 s    1 1.00
            0.161278             1.000000

   30 0
 s    3 1.00
           18.731137             0.033495
            2.825394             0.234727
            0.640122             0.813757
 s    1 1.00
            0.161278             1.000000

   31 0
 s    3 1.00
           18.731137             0.033495
            2.825394             0.234727
            0.640122             0.813757
 s    1 1.00
            0.161278             1.000000

   32 0
 s    3 1.00
           18.731137             0.033495
            2.825394             0.234727
            0.640122             0.813757
 s    1 1.00
            0.161278             1.000000

[MO]
 Ene=   -88.8484
 Spin= Alpha
 Occup= 1.0
    1    0.00004
    2    0.00003
    3    0.00099
    4    0.00001
    5    0.00000
    6    0.00000
    7   -0.00028
    8   -0.00013
    9    0.00064
   10    0.00007
   11   -0.00003
   12    0.00009
   13    0.00001
   14    0.00001
   15   -0.00002
   16    0.00000
   17   -0.00000
   18    0.00000
   19   -0.00002
   20   -0.00002
   21   -0.00015
   22    0.00000
   23   -0.00005
   24    0.00003
   25    0.00000
   26   -0.00001
   27   -0.00002
   28   -0.00003
   29    0.00000
   30    0.00000
   31   -0.00000
   32   -0.00001
   33    0.00000
   34    0.00001
   35    0.00012
   36    0.00005
   37    0.00003
   38   -0.00001
   39    0.00001
   40    0.00001
   41   -0.00001
   42    0.00000
   43   -0.00002
   44   -0.00000
   45   -0.00005
   46    0.00003
   47   -0.00016
   48   -0.00000
   49    0.00001
   50   -0.00000
   51   -0.00001
   52   -0.00008
   53    0.00017
   54    0.00000
   55    0.00000
   56   -0.00000
   57   -0.00001
   58   -0.00001
   59   -0.00000
   60   -0.00007
   61    0.00001
   62    0.00020
   63    0.00003
   64    0.00001
   65    0.00004
   66    0.00001
   67   -0.00002
   68   -0.00001
   69    0.00001
   70   -0.00014
   71    0.00000
   72   -0.00010
   73   -0.00001
   74    0.00007
   75   -0.00000
   76   -0.00000
   77   -0.00006
   78   -0.00002
   79    0.00000
   80   -0.00000
   81   -0.00000
   82   -0.00001
   83   -0.00000
   84   -0.00001
   85    0.00014
   86    0.00000
   87    0.00018
   88    0.00001
   89    0.00002
   90    0.00004
   91    0.00000
   92    0.00000
   93    0.00002
   94    0.00002
   95   -0.00017
   96    0.00000
   97   -0.00008
   98   -0.00001
   99    0.00008
  100    0.00000
  101    0.00000
  102    0.00002
  103   -0.00032
  104    0.00000
  105    0.00000
  106   -0.00000
  107   -0.00002
  108   -0.00000
  109    0.00001
  110   -0.00006
  111   -0.00001
  112   -0.00003
  113    0.00000
  114   -0.00002
  115    0.00001
  116    0.00000
  117    0.00002
  118   -0.00000
  119    0.00002
  120   -0.00004
  121   -0.00001
  122    0.00002
  123    0.00001
  124   -0.00001
  125   -0.00001
  126   -0.00005
  127    0.00039
  128   -0.00000
  129    0.00000
  130   -0.00002
  131    0.00001
  132    0.00003
  133    0.00013
  134   -0.00003
  135   -0.00003
  136   -0.00002
  137    0.00000
  138   -0.00000
  139   -0.00000
  140   -0.00000
  141   -0.00001
  142   -0.00002
  143    0.00000
  144    0.00001
  145   -0.00000
  146    0.00004
  147    0.00006
  148   -0.00001
  149   -0.00000
  150   -0.00000
  151   -0.00000
  152    0.00000
  153    0.00000
  154    0.00000
  155    0.00000
  156    0.00000
  157   -0.00004
  158   -0.00000
  159   -0.00000
  160   -0.00000
  161   -0.00005
  162   -0.00001
  163   -0.00004
  164    0.00001
  165   -0.00000
  166   -0.00000
  167    0.00000
  168   -0.00000
  169   -0.00000
  170   -0.00000
  171   -0.00001
  172    0.00004
  173   -0.00000
  174   -0.00000
  175   -0.00001
  176    0.00002
  177   -0.00003
  178   -0.00000
  179   -0.00000
  180   -0.00000
  181   -0.00001
  182   -0.00001
  183    0.00000
  184   -0.00000
  185    0.00000
  186    0.00000
  187   -0.00006
  188    0.00000
  189   -0.00000
  190   -0.00000
  191    0.00000
  192   -0.00000
  193   -0.00001
  194    0.00000
  195    0.00001
  196    0.00000
  197   -0.00000
  198   -0.00000
  199    0.00000
  200    0.00000
  201    0.00000
  202   -0.00005
  203   -0.00000
  204   -0.00000
  205   -0.00000
  206   -0.00002
  207    0.00000
  208    0.00000
  209   -0.00000
  210    0.00000
  211    0.00000
  212   -0.00000
  213    0.00000
  214    0.00000
  215    0.00000
  216    0.00000
  217   -0.00006
  218    0.00000
  219    0.00000
  220    0.00000
  221   -0.00000
  222    0.00001
  223   -0.00000
  224    0.00000
  225    0.00000
  226    0.00000
  227    0.00000
  228    0.00000
  229   -0.00000
  230   -0.99610
  231   -0.01482
  232    0.02439
  233   -0.00410
  234    0.00005
  235   -0.00003
  236    0.00001
  237   -0.00007
  238    0.00004
  239   -0.00012
  240    0.00014
  241   -0.00006
  242    0.00049
  243   -0.00840
  244   -0.00841
  245   -0.00837
  246   -0.00000
  247   -0.00001
  248    0.00000
  249    0.00001
  250   -0.00002
  251   -0.00028
  252   -0.00006
  253    0.00003
  254    0.00008
  255   -0.00005
  256    0.00012
  257   -0.00017
  258    0.00003
  259    0.00000
  260    0.00004
  261   -0.00001
  262   -0.00000
  263    0.00001
  264   -0.00000
  265   -0.00005
  266    0.00023
  267    0.00002
  268    0.00001
  269   -0.00002
  270    0.00011
  271    0.00008
  272   -0.00011
  273    0.00002
  274    0.00001
  275    0.00002
  276    0.00001
  277   -0.00001
  278   -0.00001
  279    0.00000
  280    0.00001
  281   -0.00002
  282    0.00004
  283   -0.00001
  284    0.00001
  285    0.00004
  286   -0.00007
  287    0.00005
  288    0.00012
 Ene=   -77.1292
 Spin= Alpha
 Occup= 1.0
    1   -0.00001
    2    0.00004
    3   -0.00160
    4   -0.00001
    5   -0.00000
    6   -0.00000
    7    0.00081
    8    0.00032
    9   -0.00020
   10    0.00024
   11    0.00001
   12   -0.00005
   13    0.00004
   14   -0.00001
   15   -0.00000
   16    0.00001
   17   -0.00000
   18   -0.00001
   19    0.00010
   20    0.00003
   21   -0.00001
   22    0.00000
   23   -0.00003
   24    0.00002
   25    0.00002
   26    0.00002
   27    0.00012
   28   -0.00025
   29   -0.00000
   30   -0.00000
   31    0.00000
   32   -0.00001
   33   -0.00000
   34   -0.00002
   35    0.00029
   36    0.00009
   37    0.00009
   38   -0.00001
   39   -0.00003
   40    0.00001
   41   -0.00002
   42   -0.00000
   43   -0.00000
   44   -0.00001
   45    0.00016
   46    0.00001
   47   -0.00007
   48   -0.00001
   49    0.00025
   50   -0.00002
   51    0.00001
   52    0.00004
   53   -0.00028
   54   -0.00001
   55   -0.00000
   56    0.00000
   57    0.00003
   58    0.00001
   59   -0.00001
   60    0.00005
   61   -0.00003
   62    0.00003
   63   -0.00002
   64    0.00001
   65    0.00001
   66   -0.00000
   67    0.00000
   68   -0.00000
   69   -0.00000
   70    0.00005
   71    0.00000
   72    0.00003
   73   -0.00000
   74    0.00005
   75    0.00014
   76    0.00001
   77    0.00005
   78    0.00013
   79   -0.00000
   80    0.00000
   81    0.00000
   82    0.00000
   83    0.00001
   84   -0.00002
   85    0.00016
   86    0.00002
   87    0.00013
   88   -0.00003
   89   -0.00002
   90    0.00000
   91    0.00002
   92    0.00002
   93   -0.00001
   94    0.00000
   95   -0.00006
   96    0.00001
   97    0.00005
   98   -0.00003
   99    0.00020
  100    0.99624
  101    0.01409
  102   -0.02742
  103    0.00658
  104   -0.00001
  105    0.00000
  106   -0.00000
  107   -0.00021
  108   -0.00006
  109    0.00007
  110    0.00064
  111    0.00017
  112   -0.00019
  113    0.00925
  114    0.00924
  115    0.00922
  116   -0.00000
  117    0.00000
  118    0.00000
  119    0.00012
  120   -0.00034
  121    0.00011
  122   -0.00025
  123    0.00013
  124   -0.00040
  125    0.00001
  126    0.00002
  127    0.00008
  128   -0.00002
  129   -0.00000
  130    0.00001
  131   -0.00008
  132   -0.00005
  133   -0.00006
  134    0.00001
  135    0.00001
  136    0.00002
  137   -0.00000
  138    0.00000
  139    0.00000
  140   -0.00001
  141   -0.00004
  142    0.00040
  143    0.00001
  144   -0.00000
  145   -0.00001
  146   -0.00005
  147    0.00005
  148    0.00006
  149   -0.00002
  150   -0.00002
  151   -0.00003
  152    0.00001
  153   -0.00001
  154   -0.00000
  155    0.00001
  156    0.00006
  157    0.00018
  158    0.00001
  159    0.00001
  160   -0.00001
  161   -0.00035
  162   -0.00005
  163   -0.00012
  164    0.00000
  165    0.00001
  166   -0.00003
  167    0.00000
  168    0.00000
  169    0.00000
  170   -0.00001
  171   -0.00004
  172    0.00033
  173    0.00001
  174    0.00001
  175   -0.00001
  176   -0.00001
  177   -0.00009
  178    0.00004
  179   -0.00003
  180   -0.00002
  181   -0.00003
  182   -0.00000
  183   -0.00000
  184   -0.00000
  185    0.00000
  186    0.00001
  187   -0.00016
  188   -0.00000
  189    0.00000
  190    0.00000
  191    0.00005
  192   -0.00003
  193   -0.00003
  194    0.00001
  195    0.00001
  196    0.00001
  197   -0.00000
  198    0.00000
  199   -0.00000
  200    0.00002
  201    0.00008
  202   -0.00059
  203   -0.00000
  204   -0.00000
  205    0.00002
  206   -0.00015
  207   -0.00000
  208   -0.00016
  209    0.00004
  210    0.00006
  211    0.00001
  212   -0.00000
  213   -0.00000
  214    0.00001
  215    0.00000
  216    0.00001
  217   -0.00015
  218   -0.00000
  219   -0.00000
  220   -0.00000
  221    0.00004
  222    0.00007
  223   -0.00001
  224    0.00000
  225    0.00000
  226    0.00000
  227   -0.00000
  228   -0.00000
  229    0.00000
  230   -0.00000
  231   -0.00000
  232   -0.00001
  233    0.00034
  234    0.00000
  235   -0.00000
  236   -0.00000
  237   -0.00002
  238    0.00001
  239    0.00001
  240    0.00001
  241   -0.00002
  242    0.00001
  243   -0.00002
  244    0.00001
  245   -0.00000
  246   -0.00000
  247   -0.00003
  248   -0.00000
  249    0.00001
  250    0.00002
  251   -0.00006
  252   -0.00001
  253   -0.00003
  254   -0.00002
  255    0.00002
  256    0.00021
  257    0.00004
  258    0.00002
  259    0.00002
  260    0.00001
  261   -0.00000
  262    0.00000
  263    0.00000
  264   -0.00001
  265   -0.00003
  266    0.00021
  267    0.00000
  268    0.00001
  269   -0.00000
  270    0.00002
  271   -0.00003
  272   -0.00011
  273   -0.00000
  274   -0.00001
  275    0.00000
  276   -0.00000
  277    0.00000
  278   -0.00000
  279   -0.00001
  280    0.00005
  281   -0.00002
  282    0.00002
  283    0.00000
  284   -0.00007
  285    0.00001
  286   -0.00009
  287   -0.00003
  288   -0.00003
 Ene=   -77.1277
 Spin= Alpha
 Occup= 1.0
    1    0.00001
    2   -0.00005
    3    0.00182
    4   -0.00000
    5   -0.00003
    6    0.00000
    7    0.00026
    8    0.00117
    9    0.00013
   10   -0.00008
   11    0.00024
   12    0.00005
   13    0.00000
   14   -0.00005
   15    0.00000
   16    0.00001
   17   -0.00000
   18   -0.00001
   19   -0.00004
   20   -0.00011
   21   -0.00002
   22    0.00003
   23    0.00002
   24   -0.00002
   25   -0.99624
   26   -0.01408
   27    0.02742
   28   -0.00678
   29    0.00000
   30   -0.00001
   31   -0.00000
   32    0.00003
   33   -0.00020
   34   -0.00007
   35   -0.00014
   36    0.00066
   37    0.00022
   38   -0.00923
   39   -0.00925
   40   -0.00922
   41    0.00001
   42   -0.00000
   43   -0.00000
   44   -0.00011
   45    0.00028
   46   -0.00013
   47    0.00038
   48   -0.00013
   49    0.00040
   50   -0.00025
   51   -0.00000
   52    0.00001
   53   -0.00040
   54    0.00000
   55   -0.00000
   56   -0.00000
   57    0.00002
   58    0.00001
   59    0.00002
   60    0.00007
   61    0.00004
   62   -0.00009
   63    0.00002
   64    0.00002
   65   -0.00001
   66   -0.00003
   67   -0.00002
   68    0.00001
   69   -0.00000
   70   -0.00002
   71    0.00001
   72    0.00001
   73    0.00002
   74   -0.00012
   75   -0.00007
   76   -0.00001
   77   -0.00005
   78    0.00041
   79    0.00000
   80   -0.00001
   81   -0.00000
   82   -0.00001
   83    0.00004
   84    0.00001
   85   -0.00004
   86    0.00007
   87   -0.00001
   88   -0.00001
   89    0.00002
   90   -0.00001