[Molden Format]
[Title]
Written by TeraChem
[Atoms] Angs
Mn   1   15      0.10635   -0.07641    0.20263
P   2   15     -0.43997    2.63435    0.01082
H   3   1     -1.06323    3.12985    1.18089
H   4   1      0.69289    3.47567    0.04480
H   5   1     -1.19688    3.37252   -0.93031
P   6   15      2.87222    0.31054   -0.47977
H   7   1      3.40205    1.58621   -0.18018
H   8   1      3.79115   -0.44433    0.28549
H   9   1      3.49655    0.14303   -1.73672
P   10   15      0.40956   -2.83864    0.42301
H   11   1      1.75061   -3.26721    0.52714
H   12   1     -0.03758   -3.35110    1.66375
H   13   1     -0.06129   -3.89050   -0.39772
P   14   15     -2.63186   -0.50719    0.68743
H   15   1     -3.26088   -1.69889    0.26716
H   16   1     -3.01018   -0.57250    2.05065
H   17   1     -3.62953    0.39562    0.26134
C   18   6     -0.13721   -0.28454   -2.38787
C   19   6      0.41810    0.97344   -2.77772
C   20   6     -1.55369   -0.42933   -2.49208
C   21   6      0.66661   -1.44462   -2.61116
N   22   7      1.34612   -2.38741   -2.72558
N   23   7     -2.71631   -0.53730   -2.51649
N   24   7      0.88050    2.01561   -3.03128
S   25   16      1.06729    0.25931    2.38587
C   26   6     -0.23500    0.45588    3.69239
C   27   6     -0.60978   -0.86037    4.37068
H   28   1     -1.33756   -0.68725    5.17492
H   29   1      0.27321   -1.33888    4.80643
H   30   1     -1.05160   -1.56401    3.65590
H   31   1     -1.12021    0.93246    3.25772
H   32   1      0.17511    1.15323    4.42976
[GTO]
    1 0
 s    3 1.00
            5.914000            -0.376451
            1.605000             0.772479
            0.626000             0.476935
 s    4 1.00
            5.914000             0.211997
            1.605000            -0.519947
            0.626000            -0.585768
            0.111500             1.100396
 s    1 1.00
            0.038000             1.000000
 p    3 1.00
           18.200000            -0.044790
            2.141000             0.626031
            0.700900             0.469633
 p    1 1.00
            0.069000             1.000000
 p    1 1.00
            0.021000             1.000000
 d    4 1.00
           32.270000             0.034158
            8.875000             0.176110
            2.890000             0.439430
            0.876100             0.594327
 d    1 1.00
            0.212000             1.000000

    2 0
 s    6 1.00
        19413.300000             0.001852
         2909.420000             0.014206
          661.364000             0.069999
          185.759000             0.240079
           59.194300             0.484762
           20.031000             0.335200
 s    6 1.00
          339.478000            -0.002782
           81.010100            -0.036050
           25.878000            -0.116631
            9.452210             0.096833
            3.665660             0.614418
            1.467460             0.403798
 s    3 1.00
            2.156230            -0.252924
            0.748997             0.032852
            0.283145             1.081255
 s    1 1.00
            0.099832             1.000000
 p    6 1.00
          339.478000             0.004565
           81.010100             0.033694
           25.878000             0.139755
            9.452210             0.339362
            3.665660             0.450921
            1.467460             0.238586
 p    3 1.00
            2.156230            -0.017765
            0.748997             0.274058
            0.283145             0.785422
 p    1 1.00
            0.099832             1.000000
 d    1 1.00
            0.550000             1.000000

    3 0
 s    3 1.00
           18.731137             0.033495
            2.825394             0.234727
            0.640122             0.813757
 s    1 1.00
            0.161278             1.000000

    4 0
 s    3 1.00
           18.731137             0.033495
            2.825394             0.234727
            0.640122             0.813757
 s    1 1.00
            0.161278             1.000000

    5 0
 s    3 1.00
           18.731137             0.033495
            2.825394             0.234727
            0.640122             0.813757
 s    1 1.00
            0.161278             1.000000

    6 0
 s    6 1.00
        19413.300000             0.001852
         2909.420000             0.014206
          661.364000             0.069999
          185.759000             0.240079
           59.194300             0.484762
           20.031000             0.335200
 s    6 1.00
          339.478000            -0.002782
           81.010100            -0.036050
           25.878000            -0.116631
            9.452210             0.096833
            3.665660             0.614418
            1.467460             0.403798
 s    3 1.00
            2.156230            -0.252924
            0.748997             0.032852
            0.283145             1.081255
 s    1 1.00
            0.099832             1.000000
 p    6 1.00
          339.478000             0.004565
           81.010100             0.033694
           25.878000             0.139755
            9.452210             0.339362
            3.665660             0.450921
            1.467460             0.238586
 p    3 1.00
            2.156230            -0.017765
            0.748997             0.274058
            0.283145             0.785422
 p    1 1.00
            0.099832             1.000000
 d    1 1.00
            0.550000             1.000000

    7 0
 s    3 1.00
           18.731137             0.033495
            2.825394             0.234727
            0.640122             0.813757
 s    1 1.00
            0.161278             1.000000

    8 0
 s    3 1.00
           18.731137             0.033495
            2.825394             0.234727
            0.640122             0.813757
 s    1 1.00
            0.161278             1.000000

    9 0
 s    3 1.00
           18.731137             0.033495
            2.825394             0.234727
            0.640122             0.813757
 s    1 1.00
            0.161278             1.000000

   10 0
 s    6 1.00
        19413.300000             0.001852
         2909.420000             0.014206
          661.364000             0.069999
          185.759000             0.240079
           59.194300             0.484762
           20.031000             0.335200
 s    6 1.00
          339.478000            -0.002782
           81.010100            -0.036050
           25.878000            -0.116631
            9.452210             0.096833
            3.665660             0.614418
            1.467460             0.403798
 s    3 1.00
            2.156230            -0.252924
            0.748997             0.032852
            0.283145             1.081255
 s    1 1.00
            0.099832             1.000000
 p    6 1.00
          339.478000             0.004565
           81.010100             0.033694
           25.878000             0.139755
            9.452210             0.339362
            3.665660             0.450921
            1.467460             0.238586
 p    3 1.00
            2.156230            -0.017765
            0.748997             0.274058
            0.283145             0.785422
 p    1 1.00
            0.099832             1.000000
 d    1 1.00
            0.550000             1.000000

   11 0
 s    3 1.00
           18.731137             0.033495
            2.825394             0.234727
            0.640122             0.813757
 s    1 1.00
            0.161278             1.000000

   12 0
 s    3 1.00
           18.731137             0.033495
            2.825394             0.234727
            0.640122             0.813757
 s    1 1.00
            0.161278             1.000000

   13 0
 s    3 1.00
           18.731137             0.033495
            2.825394             0.234727
            0.640122             0.813757
 s    1 1.00
            0.161278             1.000000

   14 0
 s    6 1.00
        19413.300000             0.001852
         2909.420000             0.014206
          661.364000             0.069999
          185.759000             0.240079
           59.194300             0.484762
           20.031000             0.335200
 s    6 1.00
          339.478000            -0.002782
           81.010100            -0.036050
           25.878000            -0.116631
            9.452210             0.096833
            3.665660             0.614418
            1.467460             0.403798
 s    3 1.00
            2.156230            -0.252924
            0.748997             0.032852
            0.283145             1.081255
 s    1 1.00
            0.099832             1.000000
 p    6 1.00
          339.478000             0.004565
           81.010100             0.033694
           25.878000             0.139755
            9.452210             0.339362
            3.665660             0.450921
            1.467460             0.238586
 p    3 1.00
            2.156230            -0.017765
            0.748997             0.274058
            0.283145             0.785422
 p    1 1.00
            0.099832             1.000000
 d    1 1.00
            0.550000             1.000000

   15 0
 s    3 1.00
           18.731137             0.033495
            2.825394             0.234727
            0.640122             0.813757
 s    1 1.00
            0.161278             1.000000

   16 0
 s    3 1.00
           18.731137             0.033495
            2.825394             0.234727
            0.640122             0.813757
 s    1 1.00
            0.161278             1.000000

   17 0
 s    3 1.00
           18.731137             0.033495
            2.825394             0.234727
            0.640122             0.813757
 s    1 1.00
            0.161278             1.000000

   18 0
 s    6 1.00
         3047.524900             0.001835
          457.369510             0.014037
          103.948690             0.068843
           29.210155             0.232184
            9.286663             0.467941
            3.163927             0.362312
 s    3 1.00
            7.868272            -0.119332
            1.881288            -0.160854
            0.544249             1.143456
 s    1 1.00
            0.168714             1.000000
 p    3 1.00
            7.868272             0.068999
            1.881288             0.316424
            0.544249             0.744308
 p    1 1.00
            0.168714             1.000000
 d    1 1.00
            0.800000             1.000000

   19 0
 s    6 1.00
         3047.524900             0.001835
          457.369510             0.014037
          103.948690             0.068843
           29.210155             0.232184
            9.286663             0.467941
            3.163927             0.362312
 s    3 1.00
            7.868272            -0.119332
            1.881288            -0.160854
            0.544249             1.143456
 s    1 1.00
            0.168714             1.000000
 p    3 1.00
            7.868272             0.068999
            1.881288             0.316424
            0.544249             0.744308
 p    1 1.00
            0.168714             1.000000
 d    1 1.00
            0.800000             1.000000

   20 0
 s    6 1.00
         3047.524900             0.001835
          457.369510             0.014037
          103.948690             0.068843
           29.210155             0.232184
            9.286663             0.467941
            3.163927             0.362312
 s    3 1.00
            7.868272            -0.119332
            1.881288            -0.160854
            0.544249             1.143456
 s    1 1.00
            0.168714             1.000000
 p    3 1.00
            7.868272             0.068999
            1.881288             0.316424
            0.544249             0.744308
 p    1 1.00
            0.168714             1.000000
 d    1 1.00
            0.800000             1.000000

   21 0
 s    6 1.00
         3047.524900             0.001835
          457.369510             0.014037
          103.948690             0.068843
           29.210155             0.232184
            9.286663             0.467941
            3.163927             0.362312
 s    3 1.00
            7.868272            -0.119332
            1.881288            -0.160854
            0.544249             1.143456
 s    1 1.00
            0.168714             1.000000
 p    3 1.00
            7.868272             0.068999
            1.881288             0.316424
            0.544249             0.744308
 p    1 1.00
            0.168714             1.000000
 d    1 1.00
            0.800000             1.000000

   22 0
 s    6 1.00
         4173.511000             0.001835
          627.457900             0.013995
          142.902100             0.068587
           40.234330             0.232241
           12.820210             0.469070
            4.390437             0.360455
 s    3 1.00
           11.626358            -0.114961
            2.716280            -0.169118
            0.772218             1.145852
 s    1 1.00
            0.212031             1.000000
 p    3 1.00
           11.626358             0.067580
            2.716280             0.323907
            0.772218             0.740895
 p    1 1.00
            0.212031             1.000000
 d    1 1.00
            0.800000             1.000000

   23 0
 s    6 1.00
         4173.511000             0.001835
          627.457900             0.013995
          142.902100             0.068587
           40.234330             0.232241
           12.820210             0.469070
            4.390437             0.360455
 s    3 1.00
           11.626358            -0.114961
            2.716280            -0.169118
            0.772218             1.145852
 s    1 1.00
            0.212031             1.000000
 p    3 1.00
           11.626358             0.067580
            2.716280             0.323907
            0.772218             0.740895
 p    1 1.00
            0.212031             1.000000
 d    1 1.00
            0.800000             1.000000

   24 0
 s    6 1.00
         4173.511000             0.001835
          627.457900             0.013995
          142.902100             0.068587
           40.234330             0.232241
           12.820210             0.469070
            4.390437             0.360455
 s    3 1.00
           11.626358            -0.114961
            2.716280            -0.169118
            0.772218             1.145852
 s    1 1.00
            0.212031             1.000000
 p    3 1.00
           11.626358             0.067580
            2.716280             0.323907
            0.772218             0.740895
 p    1 1.00
            0.212031             1.000000
 d    1 1.00
            0.800000             1.000000

   25 0
 s    6 1.00
        21917.100000             0.001869
         3301.490000             0.014230
          754.146000             0.069696
          212.711000             0.238487
           67.989600             0.483307
           23.051500             0.338074
 s    6 1.00
          423.735000            -0.002377
          100.710000            -0.031693
           32.159900            -0.113317
           11.807900             0.056090
            4.631100             0.592255
            1.870250             0.455006
 s    3 1.00
            2.615840            -0.250373
            0.922167             0.066957
            0.341287             1.054506
 s    1 1.00
            0.117167             1.000000
 p    6 1.00
          423.735000             0.004061
          100.710000             0.030681
           32.159900             0.130452
           11.807900             0.327205
            4.631100             0.452851
            1.870250             0.256042
 p    3 1.00
            2.615840            -0.014511
            0.922167             0.310263
            0.341287             0.754483
 p    1 1.00
            0.117167             1.000000
 d    1 1.00
            0.650000             1.000000

   26 0
 s    6 1.00
         3047.524900             0.001835
          457.369510             0.014037
          103.948690             0.068843
           29.210155             0.232184
            9.286663             0.467941
            3.163927             0.362312
 s    3 1.00
            7.868272            -0.119332
            1.881288            -0.160854
            0.544249             1.143456
 s    1 1.00
            0.168714             1.000000
 p    3 1.00
            7.868272             0.068999
            1.881288             0.316424
            0.544249             0.744308
 p    1 1.00
            0.168714             1.000000
 d    1 1.00
            0.800000             1.000000

   27 0
 s    6 1.00
         3047.524900             0.001835
          457.369510             0.014037
          103.948690             0.068843
           29.210155             0.232184
            9.286663             0.467941
            3.163927             0.362312
 s    3 1.00
            7.868272            -0.119332
            1.881288            -0.160854
            0.544249             1.143456
 s    1 1.00
            0.168714             1.000000
 p    3 1.00
            7.868272             0.068999
            1.881288             0.316424
            0.544249             0.744308
 p    1 1.00
            0.168714             1.000000
 d    1 1.00
            0.800000             1.000000

   28 0
 s    3 1.00
           18.731137             0.033495
            2.825394             0.234727
            0.640122             0.813757
 s    1 1.00
            0.161278             1.000000

   29 0
 s    3 1.00
           18.731137             0.033495
            2.825394             0.234727
            0.640122             0.813757
 s    1 1.00
            0.161278             1.000000

   30 0
 s    3 1.00
           18.731137             0.033495
            2.825394             0.234727
            0.640122             0.813757
 s    1 1.00
            0.161278             1.000000

   31 0
 s    3 1.00
           18.731137             0.033495
            2.825394             0.234727
            0.640122             0.813757
 s    1 1.00
            0.161278             1.000000

   32 0
 s    3 1.00
           18.731137             0.033495
            2.825394             0.234727
            0.640122             0.813757
 s    1 1.00
            0.161278             1.000000

[MO]
 Ene=   -88.8296
 Spin= Alpha
 Occup= 1.0
    1   -0.00000
    2    0.00004
    3   -0.00120
    4   -0.00001
    5   -0.00000
    6   -0.00001
    7    0.00001
    8   -0.00001
    9   -0.00058
   10   -0.00009
   11   -0.00001
   12   -0.00010
   13    0.00001
   14    0.00000
   15    0.00002
   16    0.00000
   17    0.00001
   18    0.00000
   19    0.00001
   20    0.00002
   21    0.00010
   22    0.00000
   23    0.00004
   24    0.00001
   25   -0.00000
   26    0.00001
   27   -0.00002
   28    0.00001
   29   -0.00000
   30    0.00000
   31   -0.00000
   32    0.00001
   33   -0.00002
   34    0.00002
   35   -0.00008
   36   -0.00009
   37   -0.00010
   38    0.00002
   39    0.00002
   40    0.00001
   41    0.00000
   42   -0.00000
   43   -0.00000
   44   -0.00001
   45    0.00014
   46   -0.00003
   47    0.00018
   48    0.00001
   49   -0.00003
   50   -0.00000
   51    0.00001
   52    0.00001
   53    0.00001
   54   -0.00000
   55   -0.00000
   56    0.00000
   57    0.00000
   58    0.00001
   59    0.00001
   60   -0.00004
   61   -0.00007
   62   -0.00018
   63   -0.00000
   64    0.00001
   65   -0.00002
   66   -0.00000
   67    0.00001
   68    0.00000
   69   -0.00002
   70    0.00015
   71   -0.00001
   72    0.00011
   73    0.00001
   74   -0.00007
   75   -0.00000
   76    0.00000
   77   -0.00003
   78    0.00005
   79   -0.00000
   80   -0.00000
   81   -0.00000
   82    0.00001
   83    0.00003
   84    0.00002
   85   -0.00010
   86    0.00007
   87   -0.00010
   88    0.00002
   89    0.00002
   90    0.00001
   91   -0.00000
   92   -0.00000
   93   -0.00000
   94   -0.00003
   95    0.00018
   96   -0.00001
   97    0.00013
   98    0.00001
   99   -0.00002
  100   -0.00000
  101   -0.00001
  102   -0.00008
  103    0.00037
  104   -0.00000
  105   -0.00000
  106    0.00000
  107    0.00001
  108   -0.00000
  109   -0.00001
  110    0.00015
  111    0.00003
  112    0.00007
  113    0.00001
  114   -0.00001
  115   -0.00001
  116    0.00000
  117    0.00001
  118    0.00000
  119   -0.00001
  120    0.00002
  121   -0.00000
  122   -0.00003
  123   -0.00001
  124    0.00001
  125    0.00001
  126    0.00004
  127   -0.00033
  128    0.00000
  129    0.00000
  130    0.00002
  131    0.00003
  132   -0.00001
  133   -0.00008
  134    0.00002
  135    0.00002
  136    0.00002
  137   -0.00000
  138   -0.00000
  139   -0.00000
  140    0.00000
  141    0.00000
  142    0.00003
  143   -0.00000
  144   -0.00000
  145    0.00000
  146   -0.00003
  147   -0.00004
  148    0.00001
  149    0.00000
  150    0.00000
  151    0.00000
  152   -0.00000
  153   -0.00000
  154   -0.00000
  155    0.00000
  156   -0.00000
  157    0.00002
  158    0.00000
  159    0.00000
  160    0.00001
  161    0.00011
  162    0.00001
  163    0.00001
  164   -0.00000
  165    0.00001
  166    0.00000
  167   -0.00000
  168    0.00001
  169   -0.00000
  170    0.00000
  171    0.00000
  172    0.00003
  173   -0.00000
  174    0.00000
  175    0.00000
  176   -0.00003
  177    0.00002
  178    0.00001
  179    0.00000
  180    0.00000
  181    0.00000
  182    0.00000
  183   -0.00000
  184    0.00000
  185   -0.00000
  186   -0.00000
  187    0.00004
  188   -0.00000
  189    0.00000
  190   -0.00000
  191    0.00001
  192    0.00000
  193    0.00000
  194   -0.00000
  195   -0.00000
  196   -0.00000
  197    0.00000
  198    0.00000
  199    0.00000
  200   -0.00000
  201   -0.00001
  202    0.00012
  203    0.00000
  204    0.00000
  205   -0.00000
  206    0.00003
  207    0.00000
  208    0.00001
  209   -0.00000
  210   -0.00001
  211   -0.00001
  212    0.00000
  213    0.00000
  214   -0.00000
  215   -0.00000
  216   -0.00000
  217    0.00005
  218   -0.00000
  219   -0.00000
  220   -0.00000
  221    0.00001
  222   -0.00000
  223    0.00001
  224   -0.00001
  225   -0.00001
  226   -0.00000
  227   -0.00000
  228    0.00000
  229    0.00000
  230    0.99610
  231    0.01483
  232   -0.02440
  233    0.00410
  234   -0.00006
  235   -0.00000
  236   -0.00000
  237    0.00011
  238    0.00002
  239    0.00009
  240   -0.00025
  241   -0.00007
  242   -0.00041
  243    0.00840
  244    0.00841
  245    0.00839
  246    0.00000
  247    0.00001
  248    0.00000
  249   -0.00001
  250    0.00002
  251    0.00025
  252    0.00006
  253   -0.00001
  254   -0.00008
  255    0.00005
  256   -0.00012
  257    0.00015
  258   -0.00003
  259    0.00000
  260   -0.00004
  261    0.00001
  262    0.00001
  263   -0.00001
  264    0.00001
  265    0.00006
  266   -0.00030
  267   -0.00001
  268   -0.00002
  269    0.00001
  270   -0.00010
  271   -0.00010
  272    0.00011
  273   -0.00002
  274   -0.00001
  275   -0.00001
  276   -0.00002
  277    0.00001
  278    0.00001
  279   -0.00000
  280   -0.00001
  281    0.00003
  282   -0.00002
  283    0.00001
  284    0.00006
  285   -0.00005
  286    0.00007
  287   -0.00005
  288   -0.00012
 Ene=   -77.1182
 Spin= Alpha
 Occup= 1.0
    1    0.00002
    2    0.00006
    3   -0.00165
    4    0.00003
    5    0.00000
    6   -0.00001
    7    0.00046
    8    0.00005
    9   -0.00025
   10    0.00034
   11    0.00006
   12   -0.00009
   13    0.00002
   14    0.00003
   15    0.00004
   16   -0.00000
   17    0.00001
   18    0.00000
   19    0.00009
   20    0.00007
   21   -0.00001
   22    0.00000
   23   -0.00005
   24   -0.00001
   25    0.00015
   26    0.00001
   27   -0.00003
   28    0.00004
   29    0.00000
   30    0.00000
   31    0.00000
   32   -0.00003
   33   -0.00004
   34   -0.00001
   35    0.00022
   36   -0.00008
   37    0.00002
   38    0.00003
   39    0.00002
   40    0.00003
   41   -0.00000
   42    0.00001
   43    0.00000
   44   -0.00002
   45    0.00020
   46    0.00001
   47   -0.00006
   48   -0.00004
   49    0.00022
   50   -0.00004
   51    0.00000
   52    0.00003
   53   -0.00008
   54   -0.00000
   55   -0.00000
   56    0.00000
   57    0.00002
   58    0.00000
   59   -0.00001
   60   -0.00003
   61   -0.00001
   62    0.00002
   63   -0.00001
   64    0.00001
   65    0.00001
   66   -0.00000
   67    0.00001
   68    0.00000
   69    0.00000
   70    0.00001
   71    0.00000
   72    0.00002
   73    0.00000
   74    0.00002
   75    0.00013
   76    0.00001
   77   -0.00002
   78    0.00001
   79    0.00001
   80   -0.00000
   81    0.00000
   82   -0.00004
   83    0.00003
   84   -0.00001
   85    0.00022
   86    0.00015
   87    0.00001
   88    0.00002
   89    0.00003
   90    0.00003
   91    0.00001
   92    0.00001
   93   -0.00000
   94    0.00001
   95   -0.00006
   96   -0.00002
   97    0.00020
   98   -0.00004
   99    0.00024
  100    0.99624
  101    0.01411
  102   -0.02730
  103    0.00606
  104   -0.00002
  105   -0.00001
  106   -0.00000
  107   -0.00017
  108   -0.00002
  109    0.00008
  110    0.00042
  111    0.00004
  112   -0.00018
  113    0.00928
  114    0.00925
  115    0.00924
  116    0.00001
  117    0.00000
  118    0.00000
  119    0.00015
  120   -0.00042
  121    0.00013
  122   -0.00030
  123    0.00015
  124   -0.00040
  125   -0.00000
  126   -0.00002
  127    0.00021
  128   -0.00001
  129   -0.00000
  130    0.00000
  131   -0.00026
  132    0.00004
  133    0.00007
  134    0.00000
  135   -0.00001
  136    0.00000
  137    0.00000
  138   -0.00001
  139   -0.00000
  140   -0.00001
  141   -0.00003
  142    0.00027
  143    0.00002
  144   -0.00000
  145   -0.00001
  146   -0.00004
  147   -0.00001
  148    0.00005
  149   -0.00003
  150   -0.00002
  151   -0.00003
  152   -0.00000
  153   -0.00000
  154   -0.00000
  155    0.00001
  156    0.00005
  157   -0.00003
  158    0.00002
  159   -0.00000
  160    0.00001
  161   -0.00042
  162   -0.00004
  163   -0.00008
  164   -0.00000
  165    0.00003
  166   -0.00001
  167   -0.00001
  168   -0.00000
  169    0.00000
  170   -0.00001
  171   -0.00004
  172    0.00040
  173    0.00002
  174    0.00001
  175   -0.00001
  176   -0.00009
  177    0.00004
  178    0.00007
  179   -0.00003
  180   -0.00002
  181   -0.00004
  182   -0.00001
  183   -0.00000
  184   -0.00000
  185    0.00000
  186    0.00001
  187   -0.00007
  188    0.00000
  189    0.00000
  190    0.00000
  191    0.00003
  192   -0.00002
  193   -0.00002
  194    0.00000
  195    0.00001
  196    0.00000
  197    0.00000
  198    0.00000
  199   -0.00000
  200    0.00002
  201    0.00007
  202   -0.00054
  203   -0.00000
  204   -0.00000
  205    0.00002
  206   -0.00011
  207   -0.00001
  208   -0.00014
  209    0.00004
  210    0.00005
  211   -0.00000
  212   -0.00000
  213    0.00001
  214    0.00000
  215    0.00000
  216    0.00001
  217   -0.00007
  218    0.00000
  219   -0.00000
  220    0.00000
  221    0.00001
  222    0.00002
  223   -0.00001
  224    0.00001
  225    0.00001
  226    0.00000
  227   -0.00000
  228    0.00000
  229    0.00000
  230   -0.00000
  231   -0.00002
  232   -0.00010
  233    0.00063
  234    0.00001
  235    0.00000
  236   -0.00000
  237   -0.00003
  238   -0.00001
  239    0.00001
  240   -0.00017
  241   -0.00003
  242   -0.00005
  243   -0.00001
  244   -0.00003
  245   -0.00001
  246    0.00001
  247   -0.00000
  248   -0.00000
  249    0.00001
  250    0.00002
  251   -0.00015
  252   -0.00000
  253   -0.00003
  254   -0.00002
  255   -0.00005
  256    0.00019
  257    0.00011
  258    0.00002
  259    0.00001
  260    0.00002
  261    0.00000
  262    0.00001
  263    0.00001
  264   -0.00001
  265   -0.00003
  266    0.00022
  267   -0.00001
  268    0.00002
  269   -0.00000
  270    0.00006
  271   -0.00005
  272   -0.00013
  273   -0.00000
  274   -0.00001
  275    0.00000
  276    0.00000
  277    0.00000
  278   -0.00001
  279   -0.00001
  280    0.00008
  281   -0.00002
  282    0.00000
  283    0.00001
  284   -0.00010
  285    0.00002
  286   -0.00004
  287   -0.00002
  288   -0.00003
 Ene=   -77.1109
 Spin= Alpha
 Occup= 1.0
    1   -0.00004
    2   -0.00009
    3    0.00220
    4   -0.00001
    5    0.00001
    6    0.00000
    7    0.00009
    8    0.00075
    9   -0.00010
   10   -0.00010
   11    0.00034
   12   -0.00002
   13   -0.00007
   14   -0.00005
   15   -0.00006
   16   -0.00001
   17   -0.00000
   18   -0.00000
   19   -0.00014
   20   -0.00018
   21   -0.00020
   22    0.00002
   23    0.00001
   24    0.00000
   25   -0.99624
   26   -0.01410
   27    0.02733
   28   -0.00631
   29   -0.00000
   30   -0.00002
   31   -0.00001
   32    0.00005
   33   -0.00017
   34   -0.00001
   35   -0.00023
   36    0.00052
   37   -0.00006
   38   -0.00925
   39   -0.00927
   40   -0.00923
   41    0.00000
   42    0.00000
   43   -0.00000
   44   -0.00013
   45    0.00033
   46   -0.00015
   47    0.00044
   48   -0.00014
   49    0.00032
   50   -0.00014
   51    0.00001
   52    0.00010
   53   -0.00046
   54   -0.00001
   55    0.00000
   56   -0.00000
   57    0.00004
   58   -0.00001
   59   -0.00000
   60    0.00015
   61    0.00005
   62   -0.00004
   63   -0.00002
   64    0.00001
   65   -0.00001
   66   -0.00000
   67   -0.00000
   68    0.00000
   69    0.00001
   70   -0.00008
   71    0.00000
   72    0.00001
   73    0.00002
   74   -0.00004
   75   -0.00041
   76   -0.00001
   77    0.00001
   78    0.00006
   79    0.00000
   80   -0.00001
   81   -0.00000
   82   -0.00001
   83    0.00004
   84    0.00000
   85    0.00002
   86   -0.00006
   87   -0.00000
   88   -0.00001
   89    0.00002
   90   -0.00002