[Molden Format]
[Title]
Written by TeraChem
[Atoms] Angs
Mn   1   15      0.00018   -0.00028   -0.35672
O   2   8     -0.01906    1.90110   -0.05579
C   3   6      0.95058    2.73720   -0.05258
C   4   6      0.56285    4.19409    0.01667
C   5   6      2.30274    2.36857   -0.08934
C   6   6      2.70240    1.03214   -0.05927
O   7   8      1.89228    0.03335   -0.06224
C   8   6      4.16090    0.65976    0.00401
H   9   1     -0.52352    4.29272    0.04798
H   10   1      0.94779    4.72318   -0.86299
H   11   1      1.00084    4.66907    0.90195
H   12   1      4.80731    1.53958    0.03857
H   13   1      4.41608    0.05500   -0.87389
H   14   1      4.34184    0.03918    0.88917
H   15   1      3.05810    3.14437   -0.07827
O   16   8      0.01996   -1.90138   -0.05611
C   17   6     -0.94927   -2.73796   -0.05279
C   18   6     -0.56077   -4.19460    0.01664
C   19   6     -2.30157   -2.36995   -0.08954
C   20   6     -2.70181   -1.03366   -0.05940
O   21   8     -1.89214   -0.03452   -0.06222
C   22   6     -4.16043   -0.66176    0.00378
H   23   1      0.52566   -4.29259    0.04782
H   24   1     -0.94553   -4.72403   -0.86287
H   25   1     -0.99837   -4.66961    0.90206
H   26   1     -4.80671   -1.54168    0.03823
H   27   1     -4.41562   -0.05699   -0.87410
H   28   1     -4.34154   -0.04126    0.88897
H   29   1     -3.05655   -3.14613   -0.07851
Cl   30   17     -0.00033    0.00114   -2.76114
C   31   6      0.00011   -0.00011    2.82245
O   32   8      0.00002    0.00015    3.95855
[GTO]
    1 0
 s    3 1.00
            5.914000            -0.376451
            1.605000             0.772479
            0.626000             0.476935
 s    4 1.00
            5.914000             0.211997
            1.605000            -0.519947
            0.626000            -0.585768
            0.111500             1.100396
 s    1 1.00
            0.038000             1.000000
 p    3 1.00
           18.200000            -0.044790
            2.141000             0.626031
            0.700900             0.469633
 p    1 1.00
            0.069000             1.000000
 p    1 1.00
            0.021000             1.000000
 d    4 1.00
           32.270000             0.034158
            8.875000             0.176110
            2.890000             0.439430
            0.876100             0.594327
 d    1 1.00
            0.212000             1.000000

    2 0
 s    6 1.00
         5484.671700             0.001831
          825.234950             0.013950
          188.046960             0.068445
           52.964500             0.232714
           16.897570             0.470193
            5.799635             0.358521
 s    3 1.00
           15.539616            -0.110778
            3.599934            -0.148026
            1.013762             1.130767
 s    1 1.00
            0.270006             1.000000
 p    3 1.00
           15.539616             0.070874
            3.599934             0.339753
            1.013762             0.727159
 p    1 1.00
            0.270006             1.000000
 d    1 1.00
            0.800000             1.000000

    3 0
 s    6 1.00
         3047.524900             0.001835
          457.369510             0.014037
          103.948690             0.068843
           29.210155             0.232184
            9.286663             0.467941
            3.163927             0.362312
 s    3 1.00
            7.868272            -0.119332
            1.881288            -0.160854
            0.544249             1.143456
 s    1 1.00
            0.168714             1.000000
 p    3 1.00
            7.868272             0.068999
            1.881288             0.316424
            0.544249             0.744308
 p    1 1.00
            0.168714             1.000000
 d    1 1.00
            0.800000             1.000000

    4 0
 s    6 1.00
         3047.524900             0.001835
          457.369510             0.014037
          103.948690             0.068843
           29.210155             0.232184
            9.286663             0.467941
            3.163927             0.362312
 s    3 1.00
            7.868272            -0.119332
            1.881288            -0.160854
            0.544249             1.143456
 s    1 1.00
            0.168714             1.000000
 p    3 1.00
            7.868272             0.068999
            1.881288             0.316424
            0.544249             0.744308
 p    1 1.00
            0.168714             1.000000
 d    1 1.00
            0.800000             1.000000

    5 0
 s    6 1.00
         3047.524900             0.001835
          457.369510             0.014037
          103.948690             0.068843
           29.210155             0.232184
            9.286663             0.467941
            3.163927             0.362312
 s    3 1.00
            7.868272            -0.119332
            1.881288            -0.160854
            0.544249             1.143456
 s    1 1.00
            0.168714             1.000000
 p    3 1.00
            7.868272             0.068999
            1.881288             0.316424
            0.544249             0.744308
 p    1 1.00
            0.168714             1.000000
 d    1 1.00
            0.800000             1.000000

    6 0
 s    6 1.00
         3047.524900             0.001835
          457.369510             0.014037
          103.948690             0.068843
           29.210155             0.232184
            9.286663             0.467941
            3.163927             0.362312
 s    3 1.00
            7.868272            -0.119332
            1.881288            -0.160854
            0.544249             1.143456
 s    1 1.00
            0.168714             1.000000
 p    3 1.00
            7.868272             0.068999
            1.881288             0.316424
            0.544249             0.744308
 p    1 1.00
            0.168714             1.000000
 d    1 1.00
            0.800000             1.000000

    7 0
 s    6 1.00
         5484.671700             0.001831
          825.234950             0.013950
          188.046960             0.068445
           52.964500             0.232714
           16.897570             0.470193
            5.799635             0.358521
 s    3 1.00
           15.539616            -0.110778
            3.599934            -0.148026
            1.013762             1.130767
 s    1 1.00
            0.270006             1.000000
 p    3 1.00
           15.539616             0.070874
            3.599934             0.339753
            1.013762             0.727159
 p    1 1.00
            0.270006             1.000000
 d    1 1.00
            0.800000             1.000000

    8 0
 s    6 1.00
         3047.524900             0.001835
          457.369510             0.014037
          103.948690             0.068843
           29.210155             0.232184
            9.286663             0.467941
            3.163927             0.362312
 s    3 1.00
            7.868272            -0.119332
            1.881288            -0.160854
            0.544249             1.143456
 s    1 1.00
            0.168714             1.000000
 p    3 1.00
            7.868272             0.068999
            1.881288             0.316424
            0.544249             0.744308
 p    1 1.00
            0.168714             1.000000
 d    1 1.00
            0.800000             1.000000

    9 0
 s    3 1.00
           18.731137             0.033495
            2.825394             0.234727
            0.640122             0.813757
 s    1 1.00
            0.161278             1.000000

   10 0
 s    3 1.00
           18.731137             0.033495
            2.825394             0.234727
            0.640122             0.813757
 s    1 1.00
            0.161278             1.000000

   11 0
 s    3 1.00
           18.731137             0.033495
            2.825394             0.234727
            0.640122             0.813757
 s    1 1.00
            0.161278             1.000000

   12 0
 s    3 1.00
           18.731137             0.033495
            2.825394             0.234727
            0.640122             0.813757
 s    1 1.00
            0.161278             1.000000

   13 0
 s    3 1.00
           18.731137             0.033495
            2.825394             0.234727
            0.640122             0.813757
 s    1 1.00
            0.161278             1.000000

   14 0
 s    3 1.00
           18.731137             0.033495
            2.825394             0.234727
            0.640122             0.813757
 s    1 1.00
            0.161278             1.000000

   15 0
 s    3 1.00
           18.731137             0.033495
            2.825394             0.234727
            0.640122             0.813757
 s    1 1.00
            0.161278             1.000000

   16 0
 s    6 1.00
         5484.671700             0.001831
          825.234950             0.013950
          188.046960             0.068445
           52.964500             0.232714
           16.897570             0.470193
            5.799635             0.358521
 s    3 1.00
           15.539616            -0.110778
            3.599934            -0.148026
            1.013762             1.130767
 s    1 1.00
            0.270006             1.000000
 p    3 1.00
           15.539616             0.070874
            3.599934             0.339753
            1.013762             0.727159
 p    1 1.00
            0.270006             1.000000
 d    1 1.00
            0.800000             1.000000

   17 0
 s    6 1.00
         3047.524900             0.001835
          457.369510             0.014037
          103.948690             0.068843
           29.210155             0.232184
            9.286663             0.467941
            3.163927             0.362312
 s    3 1.00
            7.868272            -0.119332
            1.881288            -0.160854
            0.544249             1.143456
 s    1 1.00
            0.168714             1.000000
 p    3 1.00
            7.868272             0.068999
            1.881288             0.316424
            0.544249             0.744308
 p    1 1.00
            0.168714             1.000000
 d    1 1.00
            0.800000             1.000000

   18 0
 s    6 1.00
         3047.524900             0.001835
          457.369510             0.014037
          103.948690             0.068843
           29.210155             0.232184
            9.286663             0.467941
            3.163927             0.362312
 s    3 1.00
            7.868272            -0.119332
            1.881288            -0.160854
            0.544249             1.143456
 s    1 1.00
            0.168714             1.000000
 p    3 1.00
            7.868272             0.068999
            1.881288             0.316424
            0.544249             0.744308
 p    1 1.00
            0.168714             1.000000
 d    1 1.00
            0.800000             1.000000

   19 0
 s    6 1.00
         3047.524900             0.001835
          457.369510             0.014037
          103.948690             0.068843
           29.210155             0.232184
            9.286663             0.467941
            3.163927             0.362312
 s    3 1.00
            7.868272            -0.119332
            1.881288            -0.160854
            0.544249             1.143456
 s    1 1.00
            0.168714             1.000000
 p    3 1.00
            7.868272             0.068999
            1.881288             0.316424
            0.544249             0.744308
 p    1 1.00
            0.168714             1.000000
 d    1 1.00
            0.800000             1.000000

   20 0
 s    6 1.00
         3047.524900             0.001835
          457.369510             0.014037
          103.948690             0.068843
           29.210155             0.232184
            9.286663             0.467941
            3.163927             0.362312
 s    3 1.00
            7.868272            -0.119332
            1.881288            -0.160854
            0.544249             1.143456
 s    1 1.00
            0.168714             1.000000
 p    3 1.00
            7.868272             0.068999
            1.881288             0.316424
            0.544249             0.744308
 p    1 1.00
            0.168714             1.000000
 d    1 1.00
            0.800000             1.000000

   21 0
 s    6 1.00
         5484.671700             0.001831
          825.234950             0.013950
          188.046960             0.068445
           52.964500             0.232714
           16.897570             0.470193
            5.799635             0.358521
 s    3 1.00
           15.539616            -0.110778
            3.599934            -0.148026
            1.013762             1.130767
 s    1 1.00
            0.270006             1.000000
 p    3 1.00
           15.539616             0.070874
            3.599934             0.339753
            1.013762             0.727159
 p    1 1.00
            0.270006             1.000000
 d    1 1.00
            0.800000             1.000000

   22 0
 s    6 1.00
         3047.524900             0.001835
          457.369510             0.014037
          103.948690             0.068843
           29.210155             0.232184
            9.286663             0.467941
            3.163927             0.362312
 s    3 1.00
            7.868272            -0.119332
            1.881288            -0.160854
            0.544249             1.143456
 s    1 1.00
            0.168714             1.000000
 p    3 1.00
            7.868272             0.068999
            1.881288             0.316424
            0.544249             0.744308
 p    1 1.00
            0.168714             1.000000
 d    1 1.00
            0.800000             1.000000

   23 0
 s    3 1.00
           18.731137             0.033495
            2.825394             0.234727
            0.640122             0.813757
 s    1 1.00
            0.161278             1.000000

   24 0
 s    3 1.00
           18.731137             0.033495
            2.825394             0.234727
            0.640122             0.813757
 s    1 1.00
            0.161278             1.000000

   25 0
 s    3 1.00
           18.731137             0.033495
            2.825394             0.234727
            0.640122             0.813757
 s    1 1.00
            0.161278             1.000000

   26 0
 s    3 1.00
           18.731137             0.033495
            2.825394             0.234727
            0.640122             0.813757
 s    1 1.00
            0.161278             1.000000

   27 0
 s    3 1.00
           18.731137             0.033495
            2.825394             0.234727
            0.640122             0.813757
 s    1 1.00
            0.161278             1.000000

   28 0
 s    3 1.00
           18.731137             0.033495
            2.825394             0.234727
            0.640122             0.813757
 s    1 1.00
            0.161278             1.000000

   29 0
 s    3 1.00
           18.731137             0.033495
            2.825394             0.234727
            0.640122             0.813757
 s    1 1.00
            0.161278             1.000000

   30 0
 s    6 1.00
        25180.100000             0.001833
         3780.350000             0.014034
          860.474000             0.069097
          242.145000             0.237452
           77.334900             0.483034
           26.247000             0.339856
 s    6 1.00
          491.765000            -0.002297
          116.984000            -0.030714
           37.415300            -0.112528
           13.783400             0.045016
            5.452150             0.589354
            2.225880             0.465206
 s    3 1.00
            3.186490            -0.251831
            1.144270             0.061589
            0.420377             1.060185
 s    1 1.00
            0.142657             1.000000
 p    6 1.00
          491.765000             0.003989
          116.984000             0.030318
           37.415300             0.129880
           13.783400             0.327951
            5.452150             0.453527
            2.225880             0.252154
 p    3 1.00
            3.186490            -0.014299
            1.144270             0.323572
            0.420377             0.743508
 p    1 1.00
            0.142657             1.000000
 d    1 1.00
            0.750000             1.000000

   31 0
 s    6 1.00
         3047.524900             0.001835
          457.369510             0.014037
          103.948690             0.068843
           29.210155             0.232184
            9.286663             0.467941
            3.163927             0.362312
 s    3 1.00
            7.868272            -0.119332
            1.881288            -0.160854
            0.544249             1.143456
 s    1 1.00
            0.168714             1.000000
 p    3 1.00
            7.868272             0.068999
            1.881288             0.316424
            0.544249             0.744308
 p    1 1.00
            0.168714             1.000000
 d    1 1.00
            0.800000             1.000000

   32 0
 s    6 1.00
         5484.671700             0.001831
          825.234950             0.013950
          188.046960             0.068445
           52.964500             0.232714
           16.897570             0.470193
            5.799635             0.358521
 s    3 1.00
           15.539616            -0.110778
            3.599934            -0.148026
            1.013762             1.130767
 s    1 1.00
            0.270006             1.000000
 p    3 1.00
           15.539616             0.070874
            3.599934             0.339753
            1.013762             0.727159
 p    1 1.00
            0.270006             1.000000
 d    1 1.00
            0.800000             1.000000

[MO]
 Ene=  -101.4461
 Spin= Alpha
 Occup= 1.0
    1   -0.00004
    2   -0.00008
    3    0.00023
    4   -0.00000
    5    0.00000
    6   -0.00001
    7   -0.00000
    8   -0.00000
    9    0.00002
   10   -0.00000
   11    0.00000
   12   -0.00010
   13   -0.00000
   14   -0.00000
   15   -0.00001
   16    0.00000
   17   -0.00000
   18   -0.00000
   19   -0.00001
   20   -0.00000
   21   -0.00006
   22   -0.00001
   23   -0.00000
   24    0.00000
   25   -0.00000
   26   -0.00001
   27    0.00005
   28   -0.00001
   29    0.00001
   30    0.00001
   31    0.00003
   32   -0.00002
   33   -0.00003
   34   -0.00002
   35   -0.00001
   36   -0.00001
   37   -0.00000
   38   -0.00000
   39    0.00001
   40   -0.00000
   41    0.00000
   42   -0.00002
   43    0.00000
   44    0.00000
   45    0.00001
   46    0.00000
   47    0.00002
   48   -0.00001
   49    0.00000
   50   -0.00000
   51   -0.00000
   52    0.00000
   53   -0.00000
   54   -0.00000
   55    0.00000
   56   -0.00000
   57    0.00000
   58   -0.00000
   59   -0.00000
   60   -0.00000
   61   -0.00000
   62    0.00001
   63    0.00002
   64    0.00000
   65    0.00000
   66    0.00000
   67    0.00000
   68    0.00000
   69    0.00000
   70    0.00000
   71    0.00001
   72   -0.00001
   73   -0.00000
   74   -0.00000
   75    0.00000
   76   -0.00000
   77   -0.00000
   78    0.00001
   79    0.00000
   80    0.00000
   81    0.00000
   82    0.00000
   83   -0.00000
   84   -0.00000
   85   -0.00000
   86    0.00000
   87   -0.00001
   88    0.00000
   89    0.00000
   90    0.00001
   91    0.00002
   92   -0.00001
   93   -0.00000
   94   -0.00000
   95    0.00000
   96   -0.00000
   97    0.00000
   98   -0.00000
   99   -0.00000
  100   -0.00000
  101   -0.00002
  102    0.00005
  103    0.00001
  104   -0.00001
  105    0.00001
  106   -0.00003
  107    0.00002
  108   -0.00003
  109   -0.00001
  110   -0.00002
  111   -0.00001
  112   -0.00000
  113    0.00001
  114   -0.00000
  115    0.00000
  116    0.00000
  117   -0.00000
  118   -0.00000
  119   -0.00000
  120   -0.00000
  121    0.00002
  122   -0.00000
  123    0.00001
  124    0.00000
  125    0.00000
  126   -0.00000
  127    0.00000
  128   -0.00000
  129   -0.00000
  130    0.00000
  131   -0.00001
  132    0.00000
  133   -0.00001
  134   -0.00000
  135   -0.00001
  136   -0.00000
  137   -0.00000
  138    0.00001
  139   -0.00002
  140   -0.00000
  141   -0.00000
  142    0.00000
  143    0.00000
  144   -0.00000
  145   -0.00001
  146    0.00005
  147    0.00001
  148   -0.00001
  149    0.00001
  150   -0.00003
  151    0.00002
  152   -0.00003
  153   -0.00002
  154   -0.00001
  155   -0.00001
  156   -0.00000
  157    0.00000
  158   -0.00001
  159   -0.00000
  160    0.00000
  161   -0.00002
  162   -0.00000
  163   -0.00000
  164    0.00001
  165   -0.00000
  166   -0.00002
  167   -0.00001
  168    0.00000
  169   -0.00000
  170   -0.00000
  171    0.00000
  172    0.00000
  173    0.00000
  174    0.00000
  175   -0.00000
  176    0.00000
  177    0.00000
  178    0.00000
  179   -0.00000
  180    0.00000
  181   -0.00001
  182    0.00002
  183    0.00000
  184    0.00000
  185    0.00000
  186    0.00000
  187   -0.00000
  188   -0.00000
  189    0.00000
  190    0.00001
  191   -0.00001
  192    0.00000
  193    0.00000
  194    0.00000
  195    0.00000
  196    0.00000
  197    0.00001
  198    0.00000
  199    0.00000
  200    0.00000
  201    0.00000
  202    0.00000
  203    0.00000
  204   -0.00000
  205    0.00000
  206   -0.00001
  207   -0.00000
  208   -0.00000
  209    0.00001
  210   -0.00002
  211    0.00001
  212   -0.00000
  213   -0.00000
  214    0.00000
  215   -0.00000
  216    0.00000
  217    0.00000
  218    0.00000
  219   -0.00000
  220   -0.00002
  221    0.00005
  222   -0.00001
  223    0.00001
  224    0.00001
  225    0.00003
  226   -0.00002
  227   -0.00003
  228   -0.00001
  229   -0.00002
  230   -0.00001
  231   -0.00000
  232   -0.00001
  233    0.00000
  234    0.00000
  235    0.00000
  236   -0.00000
  237    0.00000
  238    0.00000
  239   -0.00000
  240   -0.00002
  241    0.00000
  242    0.00001
  243    0.00000
  244    0.00000
  245   -0.00000
  246    0.00000
  247    0.00000
  248    0.00000
  249    0.00000
  250   -0.00001
  251    0.00000
  252   -0.00001
  253   -0.00000
  254   -0.00001
  255   -0.00000
  256   -0.00000
  257    0.00001
  258   -0.00002
  259   -0.00000
  260   -0.00000
  261    0.00000
  262    0.00000
  263   -0.99600
  264   -0.01516
  265    0.02105
  266   -0.00172
  267   -0.00000
  268    0.00000
  269   -0.00002
  270    0.00000
  271   -0.00000
  272    0.00004
  273    0.00000
  274    0.00000
  275   -0.00003
  276   -0.00754
  277   -0.00754
  278   -0.00753
  279    0.00000
  280    0.00000
  281   -0.00000
  282   -0.00000
  283    0.00000
  284   -0.00001
  285   -0.00000
  286    0.00000
  287    0.00000
  288    0.00000
  289    0.00000
  290   -0.00000
  291   -0.00000
  292   -0.00000
  293    0.00000
  294    0.00000
  295    0.00000
  296    0.00000
  297   -0.00000
  298   -0.00001
  299    0.00004
  300    0.00000
  301    0.00000
  302    0.00000
  303   -0.00000
  304   -0.00000
  305   -0.00000
  306   -0.00001
  307   -0.00001
  308   -0.00001
  309   -0.00000
  310    0.00000
  311    0.00000
 Ene=   -19.2693
 Spin= Alpha
 Occup= 1.0
    1   -0.00003
    2   -0.00023
    3    0.00019
    4    0.00000
    5   -0.00000
    6   -0.00002
    7    0.00000
    8   -0.00000
    9    0.00062
   10   -0.00000
   11    0.00000
   12   -0.00006
   13   -0.00004
   14   -0.00004
   15   -0.00011
   16    0.00000
   17   -0.00000
   18    0.00000
   19    0.00014
   20    0.00014
   21    0.00044
   22   -0.00003
   23    0.00000
   24   -0.00000
   25    0.00001
   26    0.00003
   27   -0.00014
   28   -0.00000
   29   -0.00001
   30    0.00000
   31    0.00001
   32    0.00008
   33   -0.00004
   34    0.00001
   35    0.00001
   36    0.00002
   37    0.00000
   38    0.00000
   39    0.00002
   40   -0.00000
   41   -0.00000
   42    0.00004
   43    0.00001
   44    0.00001
   45    0.00001
   46    0.00007
   47   -0.00007
   48   -0.00005
   49   -0.00000
   50   -0.00000
   51   -0.00000
   52   -0.00000
   53    0.00000
   54    0.00000
   55   -0.00000
   56   -0.00000
   57    0.00006
   58    0.00000
   59   -0.00001
   60   -0.00000
   61   -0.00001
   62   -0.00001
   63    0.00002
   64   -0.00000
   65    0.00000
   66    0.00000
   67    0.00000
   68    0.00000
   69   -0.00000
   70    0.00000
   71    0.00002
   72   -0.00017
   73   -0.00000
   74   -0.00000
   75    0.00000
   76    0.00008
   77    0.00008
   78    0.00001
   79    0.00000
   80    0.00000
   81    0.00001
   82   -0.00000
   83    0.00000
   84    0.00000
   85   -0.00000
   86   -0.00000
   87    0.00005
   88    0.00001
   89    0.00001
   90    0.00001
   91   -0.00007
   92    0.00005
   93   -0.00006
   94   -0.00000
   95   -0.00000
   96   -0.00000
   97   -0.00000
   98    0.00000
   99    0.00000
  100    0.00001
  101    0.00003
  102   -0.00016
  103   -0.00001
  104   -0.00000
  105    0.00000
  106    0.00008
  107    0.00001
  108   -0.00004
  109    0.00001
  110    0.00002
  111    0.00002
  112    0.00000
  113    0.00002
  114    0.00000
  115   -0.00000
  116   -0.00000
  117    0.00005
  118   -0.00001
  119   -0.00000
  120   -0.00000
  121   -0.00000
  122    0.00000
  123    0.00003
  124    0.00000
  125    0.00000
  126    0.00000
  127    0.00000
  128   -0.00000
  129   -0.00000
  130    0.00000
  131   -0.00002
  132    0.00000
  133   -0.00001
  134   -0.00000
  135   -0.00001
  136   -0.00000
  137   -0.00001
  138    0.00000
  139    0.00000
  140    0.00000
  141   -0.00003
  142   -0.00000
  143   -0.00004
  144    0.00001
  145    0.00003
  146   -0.00014
  147    0.00000
  148    0.00001
  149    0.00000
  150   -0.00001
  151   -0.00008
  152   -0.00004
  153    0.00001
  154    0.00001
  155    0.00002
  156    0.00000
  157   -0.00000
  158   -0.00002
  159   -0.00000
  160   -0.00000
  161    0.00004
  162   -0.00001
  163   -0.00001
  164    0.00001
  165   -0.00007
  166    0.00007
  167   -0.00005
  168   -0.00000
  169   -0.00000
  170   -0.00000
  171   -0.00000
  172   -0.00000
  173   -0.00000
  174   -0.00000
  175   -0.00000
  176    0.00006
  177   -0.00000
  178    0.00001
  179   -0.00000
  180    0.00001
  181    0.00001
  182    0.00002
  183   -0.00000
  184    0.00000
  185    0.00000
  186    0.00000
  187   -0.00000
  188    0.00000
  189    0.00000
  190    0.00002
  191   -0.00017
  192    0.00000
  193    0.00000
  194    0.00000
  195   -0.00008
  196   -0.00008
  197    0.00001
  198    0.00000
  199    0.00000
  200    0.00001
  201   -0.00000
  202   -0.00000
  203   -0.00000
  204   -0.00000
  205   -0.00000
  206    0.00005
  207   -0.00001
  208   -0.00001
  209    0.00001
  210    0.00007
  211   -0.00005
  212   -0.00006
  213   -0.00000
  214   -0.00000
  215   -0.00000
  216   -0.00000
  217   -0.00000
  218   -0.00000
  219    0.00001
  220    0.00003
  221   -0.00016
  222    0.00001
  223    0.00000
  224    0.00000
  225   -0.00008
  226   -0.00001
  227   -0.00004
  228    0.00001
  229    0.00002
  230    0.00002
  231    0.00000
  232   -0.00002
  233   -0.00000
  234   -0.00000
  235   -0.00000
  236    0.00005
  237    0.00001
  238    0.00000
  239   -0.00000
  240    0.00000
  241   -0.00000
  242    0.00003
  243    0.00000
  244    0.00000
  245    0.00000
  246    0.00000
  247    0.00000
  248    0.00000
  249    0.00000
  250   -0.00002
  251    0.00000
  252   -0.00001
  253   -0.00000
  254   -0.00001
  255   -0.00000
  256   -0.00001
  257    0.00000
  258    0.00000
  259    0.00000
  260   -0.00003
  261   -0.00000
  262   -0.00004
  263   -0.00000
  264   -0.00000
  265   -0.00000
  266    0.00016
  267    0.00000
  268   -0.00000
  269    0.00001
  270   -0.00000
  271    0.00000
  272   -0.00003
  273   -0.00000
  274    0.00000
  275    0.00001
  276    0.00000
  277    0.00000
  278   -0.00006
  279    0.00000
  280   -0.00000
  281    0.00000
  282   -0.00001
  283   -0.00018
  284    0.00388
  285   -0.00000
  286    0.00000
  287    0.00041
  288   -0.00000
  289    0.00000
  290    0.00312
  291   -0.00001
  292   -0.00001
  293    0.00124
  294    0.00000
  295   -0.00000
  296    0.00000
  297   -0.99272
  298   -0.02575
  299   -0.01490
  300   -0.00000
  301    0.00000
  302    0.00133
  303   -0.00000
  304    0.00000
  305    0.00206
  306    0.00829
  307    0.00829
  308    0.00739
  309    0.00000
  310    0.00000
  311   -0.00000
 Ene=   -19.1772
 Spin= Alpha
 Occup= 1.0
    1    0.00015
    2    0.00019
    3    0.00068
    4    0.00000
    5   -0.00017
    6    0.00002
    7   -0.00005
    8   -0.00215
    9    0.00045
   10   -0.00006
   11    0.00033
   12   -0.00003
   13    0.00007
   14    0.00008
   15    0.00008
   16    0.00002
   17   -0.00000
   18    0.00000
   19    0.00018
   20    0.00078
   21    0.00004
   22   -0.00010
   23   -0.00001
   24   -0.00012
   25    0.07404
   26    0.00197
   27    0.00055
   28    0.00010
   29   -0.00001
   30    0.00001
   31   -0.00035
   32    0.00015
   33    0.00001
   34   -0.00064
   35   -0.00067
   36   -0.00059
   37   -0.00003
   38    0.00001
   39   -0.00003
   40   -0.00001
   41   -0.00004
   42    0.00069
   43   -0.00004
   44   -0.00000
   45    0.00003
   46    0.00014
   47   -0.00086
   48   -0.00015
   49   -0.00000
   50   -0.00000
   51   -0.00005
   52    0.00003
   53   -0.00000
   54    0.00000
   55   -0.00000
   56   -0.00001
   57    0.00051
   58    0.00001
   59   -0.00002
   60    0.00000
   61    0.00007
   62   -0.00011
   63    0.00002
   64   -0.00001
   65   -0.00001
   66    0.00000
   67   -0.00001
   68    0.00000
   69   -0.00000
   70    0.00001
   71    0.00007
   72   -0.00085
   73    0.00001
   74    0.00001
   75    0.00000
   76    0.00033
   77    0.00053
   78    0.00002