[Molden Format]
[Title]
Written by TeraChem
[Atoms] Angs
Mn   1   15     -0.01564    0.07406   -0.07656
O   2   8     -0.35746    2.14323    0.02833
H   3   1      0.49700    2.61271    0.04143
H   4   1     -0.80887    2.41274    0.84892
O   5   8      2.01919    0.52175   -0.07252
H   6   1      2.54141    0.34474   -0.87316
H   7   1      2.52307    0.14512    0.68005
O   8   8      0.37457   -2.02178   -0.01981
H   9   1      1.01629   -2.26960    0.67526
H   10   1     -0.43330   -2.53286    0.17006
O   11   8     -2.03167   -0.37417    0.00404
H   12   1     -2.48685   -0.33911    0.87637
H   13   1     -2.64144    0.00621   -0.65042
N   14   7      0.01351   -0.01693    2.01914
C   15   6      1.12511   -0.59781    2.44953
C   16   6     -1.15050   -0.07155    2.65730
N   17   7     -2.27239   -0.04406    2.99701
N   18   7      2.19289   -1.07294    2.56528
C   19   6     -0.01133    0.08995   -4.94828
C   20   6     -0.46400    1.20419   -4.24084
C   21   6     -0.44615    1.17683   -2.85091
N   22   7     -0.00599    0.10973   -2.14528
C   23   6      0.43200   -0.96627   -2.83903
C   24   6      0.44413   -1.01388   -4.22870
H   25   1     -0.01291    0.08262   -6.03409
H   26   1     -0.82831    2.08798   -4.75369
H   27   1     -0.78838    2.02499   -2.26960
H   28   1      0.76956   -1.80634   -2.24450
H   29   1      0.80499   -1.90670   -4.72856
[GTO]
    1 0
 s    3 1.00
            5.914000            -0.376451
            1.605000             0.772479
            0.626000             0.476935
 s    4 1.00
            5.914000             0.211997
            1.605000            -0.519947
            0.626000            -0.585768
            0.111500             1.100396
 s    1 1.00
            0.038000             1.000000
 p    3 1.00
           18.200000            -0.044790
            2.141000             0.626031
            0.700900             0.469633
 p    1 1.00
            0.069000             1.000000
 p    1 1.00
            0.021000             1.000000
 d    4 1.00
           32.270000             0.034158
            8.875000             0.176110
            2.890000             0.439430
            0.876100             0.594327
 d    1 1.00
            0.212000             1.000000

    2 0
 s    6 1.00
         5484.671700             0.001831
          825.234950             0.013950
          188.046960             0.068445
           52.964500             0.232714
           16.897570             0.470193
            5.799635             0.358521
 s    3 1.00
           15.539616            -0.110778
            3.599934            -0.148026
            1.013762             1.130767
 s    1 1.00
            0.270006             1.000000
 p    3 1.00
           15.539616             0.070874
            3.599934             0.339753
            1.013762             0.727159
 p    1 1.00
            0.270006             1.000000
 d    1 1.00
            0.800000             1.000000

    3 0
 s    3 1.00
           18.731137             0.033495
            2.825394             0.234727
            0.640122             0.813757
 s    1 1.00
            0.161278             1.000000

    4 0
 s    3 1.00
           18.731137             0.033495
            2.825394             0.234727
            0.640122             0.813757
 s    1 1.00
            0.161278             1.000000

    5 0
 s    6 1.00
         5484.671700             0.001831
          825.234950             0.013950
          188.046960             0.068445
           52.964500             0.232714
           16.897570             0.470193
            5.799635             0.358521
 s    3 1.00
           15.539616            -0.110778
            3.599934            -0.148026
            1.013762             1.130767
 s    1 1.00
            0.270006             1.000000
 p    3 1.00
           15.539616             0.070874
            3.599934             0.339753
            1.013762             0.727159
 p    1 1.00
            0.270006             1.000000
 d    1 1.00
            0.800000             1.000000

    6 0
 s    3 1.00
           18.731137             0.033495
            2.825394             0.234727
            0.640122             0.813757
 s    1 1.00
            0.161278             1.000000

    7 0
 s    3 1.00
           18.731137             0.033495
            2.825394             0.234727
            0.640122             0.813757
 s    1 1.00
            0.161278             1.000000

    8 0
 s    6 1.00
         5484.671700             0.001831
          825.234950             0.013950
          188.046960             0.068445
           52.964500             0.232714
           16.897570             0.470193
            5.799635             0.358521
 s    3 1.00
           15.539616            -0.110778
            3.599934            -0.148026
            1.013762             1.130767
 s    1 1.00
            0.270006             1.000000
 p    3 1.00
           15.539616             0.070874
            3.599934             0.339753
            1.013762             0.727159
 p    1 1.00
            0.270006             1.000000
 d    1 1.00
            0.800000             1.000000

    9 0
 s    3 1.00
           18.731137             0.033495
            2.825394             0.234727
            0.640122             0.813757
 s    1 1.00
            0.161278             1.000000

   10 0
 s    3 1.00
           18.731137             0.033495
            2.825394             0.234727
            0.640122             0.813757
 s    1 1.00
            0.161278             1.000000

   11 0
 s    6 1.00
         5484.671700             0.001831
          825.234950             0.013950
          188.046960             0.068445
           52.964500             0.232714
           16.897570             0.470193
            5.799635             0.358521
 s    3 1.00
           15.539616            -0.110778
            3.599934            -0.148026
            1.013762             1.130767
 s    1 1.00
            0.270006             1.000000
 p    3 1.00
           15.539616             0.070874
            3.599934             0.339753
            1.013762             0.727159
 p    1 1.00
            0.270006             1.000000
 d    1 1.00
            0.800000             1.000000

   12 0
 s    3 1.00
           18.731137             0.033495
            2.825394             0.234727
            0.640122             0.813757
 s    1 1.00
            0.161278             1.000000

   13 0
 s    3 1.00
           18.731137             0.033495
            2.825394             0.234727
            0.640122             0.813757
 s    1 1.00
            0.161278             1.000000

   14 0
 s    6 1.00
         4173.511000             0.001835
          627.457900             0.013995
          142.902100             0.068587
           40.234330             0.232241
           12.820210             0.469070
            4.390437             0.360455
 s    3 1.00
           11.626358            -0.114961
            2.716280            -0.169118
            0.772218             1.145852
 s    1 1.00
            0.212031             1.000000
 p    3 1.00
           11.626358             0.067580
            2.716280             0.323907
            0.772218             0.740895
 p    1 1.00
            0.212031             1.000000
 d    1 1.00
            0.800000             1.000000

   15 0
 s    6 1.00
         3047.524900             0.001835
          457.369510             0.014037
          103.948690             0.068843
           29.210155             0.232184
            9.286663             0.467941
            3.163927             0.362312
 s    3 1.00
            7.868272            -0.119332
            1.881288            -0.160854
            0.544249             1.143456
 s    1 1.00
            0.168714             1.000000
 p    3 1.00
            7.868272             0.068999
            1.881288             0.316424
            0.544249             0.744308
 p    1 1.00
            0.168714             1.000000
 d    1 1.00
            0.800000             1.000000

   16 0
 s    6 1.00
         3047.524900             0.001835
          457.369510             0.014037
          103.948690             0.068843
           29.210155             0.232184
            9.286663             0.467941
            3.163927             0.362312
 s    3 1.00
            7.868272            -0.119332
            1.881288            -0.160854
            0.544249             1.143456
 s    1 1.00
            0.168714             1.000000
 p    3 1.00
            7.868272             0.068999
            1.881288             0.316424
            0.544249             0.744308
 p    1 1.00
            0.168714             1.000000
 d    1 1.00
            0.800000             1.000000

   17 0
 s    6 1.00
         4173.511000             0.001835
          627.457900             0.013995
          142.902100             0.068587
           40.234330             0.232241
           12.820210             0.469070
            4.390437             0.360455
 s    3 1.00
           11.626358            -0.114961
            2.716280            -0.169118
            0.772218             1.145852
 s    1 1.00
            0.212031             1.000000
 p    3 1.00
           11.626358             0.067580
            2.716280             0.323907
            0.772218             0.740895
 p    1 1.00
            0.212031             1.000000
 d    1 1.00
            0.800000             1.000000

   18 0
 s    6 1.00
         4173.511000             0.001835
          627.457900             0.013995
          142.902100             0.068587
           40.234330             0.232241
           12.820210             0.469070
            4.390437             0.360455
 s    3 1.00
           11.626358            -0.114961
            2.716280            -0.169118
            0.772218             1.145852
 s    1 1.00
            0.212031             1.000000
 p    3 1.00
           11.626358             0.067580
            2.716280             0.323907
            0.772218             0.740895
 p    1 1.00
            0.212031             1.000000
 d    1 1.00
            0.800000             1.000000

   19 0
 s    6 1.00
         3047.524900             0.001835
          457.369510             0.014037
          103.948690             0.068843
           29.210155             0.232184
            9.286663             0.467941
            3.163927             0.362312
 s    3 1.00
            7.868272            -0.119332
            1.881288            -0.160854
            0.544249             1.143456
 s    1 1.00
            0.168714             1.000000
 p    3 1.00
            7.868272             0.068999
            1.881288             0.316424
            0.544249             0.744308
 p    1 1.00
            0.168714             1.000000
 d    1 1.00
            0.800000             1.000000

   20 0
 s    6 1.00
         3047.524900             0.001835
          457.369510             0.014037
          103.948690             0.068843
           29.210155             0.232184
            9.286663             0.467941
            3.163927             0.362312
 s    3 1.00
            7.868272            -0.119332
            1.881288            -0.160854
            0.544249             1.143456
 s    1 1.00
            0.168714             1.000000
 p    3 1.00
            7.868272             0.068999
            1.881288             0.316424
            0.544249             0.744308
 p    1 1.00
            0.168714             1.000000
 d    1 1.00
            0.800000             1.000000

   21 0
 s    6 1.00
         3047.524900             0.001835
          457.369510             0.014037
          103.948690             0.068843
           29.210155             0.232184
            9.286663             0.467941
            3.163927             0.362312
 s    3 1.00
            7.868272            -0.119332
            1.881288            -0.160854
            0.544249             1.143456
 s    1 1.00
            0.168714             1.000000
 p    3 1.00
            7.868272             0.068999
            1.881288             0.316424
            0.544249             0.744308
 p    1 1.00
            0.168714             1.000000
 d    1 1.00
            0.800000             1.000000

   22 0
 s    6 1.00
         4173.511000             0.001835
          627.457900             0.013995
          142.902100             0.068587
           40.234330             0.232241
           12.820210             0.469070
            4.390437             0.360455
 s    3 1.00
           11.626358            -0.114961
            2.716280            -0.169118
            0.772218             1.145852
 s    1 1.00
            0.212031             1.000000
 p    3 1.00
           11.626358             0.067580
            2.716280             0.323907
            0.772218             0.740895
 p    1 1.00
            0.212031             1.000000
 d    1 1.00
            0.800000             1.000000

   23 0
 s    6 1.00
         3047.524900             0.001835
          457.369510             0.014037
          103.948690             0.068843
           29.210155             0.232184
            9.286663             0.467941
            3.163927             0.362312
 s    3 1.00
            7.868272            -0.119332
            1.881288            -0.160854
            0.544249             1.143456
 s    1 1.00
            0.168714             1.000000
 p    3 1.00
            7.868272             0.068999
            1.881288             0.316424
            0.544249             0.744308
 p    1 1.00
            0.168714             1.000000
 d    1 1.00
            0.800000             1.000000

   24 0
 s    6 1.00
         3047.524900             0.001835
          457.369510             0.014037
          103.948690             0.068843
           29.210155             0.232184
            9.286663             0.467941
            3.163927             0.362312
 s    3 1.00
            7.868272            -0.119332
            1.881288            -0.160854
            0.544249             1.143456
 s    1 1.00
            0.168714             1.000000
 p    3 1.00
            7.868272             0.068999
            1.881288             0.316424
            0.544249             0.744308
 p    1 1.00
            0.168714             1.000000
 d    1 1.00
            0.800000             1.000000

   25 0
 s    3 1.00
           18.731137             0.033495
            2.825394             0.234727
            0.640122             0.813757
 s    1 1.00
            0.161278             1.000000

   26 0
 s    3 1.00
           18.731137             0.033495
            2.825394             0.234727
            0.640122             0.813757
 s    1 1.00
            0.161278             1.000000

   27 0
 s    3 1.00
           18.731137             0.033495
            2.825394             0.234727
            0.640122             0.813757
 s    1 1.00
            0.161278             1.000000

   28 0
 s    3 1.00
           18.731137             0.033495
            2.825394             0.234727
            0.640122             0.813757
 s    1 1.00
            0.161278             1.000000

   29 0
 s    3 1.00
           18.731137             0.033495
            2.825394             0.234727
            0.640122             0.813757
 s    1 1.00
            0.161278             1.000000

[MO]
 Ene=   -19.3188
 Spin= Alpha
 Occup= 1.0
    1    0.00013
    2    0.00027
    3   -0.00009
    4    0.00000
    5    0.00011
    6    0.00000
    7   -0.00087
    8    0.00181
    9   -0.00028
   10    0.00001
   11   -0.00031
   12   -0.00003
   13    0.00007
   14    0.00016
   15    0.00008
   16   -0.00002
   17    0.00001
   18    0.00001
   19    0.00033
   20    0.00072
   21    0.00037
   22   -0.00006
   23   -0.00004
   24   -0.00004
   25   -0.99267
   26   -0.02568
   27   -0.01284
   28   -0.00038
   29   -0.00058
   30   -0.00078
   31    0.00002
   32    0.00083
   33    0.00037
   34    0.00840
   35    0.00821
   36    0.00835
   37    0.00002
   38   -0.00004
   39   -0.00001
   40   -0.00035
   41    0.00086
   42   -0.00039
   43    0.00083
   44    0.00028
   45    0.00003
   46   -0.00006
   47    0.00002
   48    0.00004
   49   -0.00000
   50    0.00005
   51   -0.00020
   52    0.00004
   53   -0.00005
   54    0.00000
   55   -0.00002
   56    0.00001
   57   -0.00000
   58    0.00000
   59    0.00000
   60    0.00010
   61   -0.00003
   62    0.00012
   63    0.00010
   64   -0.00002
   65    0.00016
   66   -0.00002
   67   -0.00001
   68   -0.00000
   69    0.00014
   70    0.00002
   71    0.00000
   72    0.00001
   73   -0.00009
   74    0.00001
   75    0.00002
   76    0.00001
   77    0.00001
   78   -0.00006
   79    0.00025
   80    0.00003
   81    0.00024
   82    0.00014
   83    0.00009
   84   -0.00032
   85    0.00003
   86    0.00003
   87   -0.00001
   88   -0.00024
   89   -0.00022
   90    0.00004
   91    0.00000
   92    0.00002
   93    0.00004
   94   -0.00004
   95   -0.00000
   96    0.00001
   97   -0.00000
   98   -0.00005
   99    0.00006
  100   -0.00028
  101   -0.00000
  102    0.00003
  103   -0.00004
  104    0.00000
  105   -0.00000
  106   -0.00000
  107    0.00004
  108   -0.00007
  109    0.00016
  110   -0.00002
  111   -0.00001
  112   -0.00004
  113    0.00001
  114   -0.00001
  115    0.00003
  116   -0.00001
  117   -0.00004
  118    0.00039
  119   -0.00001
  120    0.00002
  121    0.00000
  122    0.00031
  123   -0.00019
  124   -0.00011
  125    0.00000
  126   -0.00000
  127    0.00000
  128   -0.00002
  129    0.00002
  130    0.00001
  131    0.00001
  132    0.00002
  133   -0.00044
  134   -0.00002
  135    0.00005
  136   -0.00002
  137    0.00039
  138   -0.00022
  139   -0.00003
  140   -0.00000
  141    0.00002
  142    0.00002
  143    0.00001
  144    0.00000
  145    0.00002
  146   -0.00001
  147   -0.00005
  148    0.00056
  149    0.00000
  150    0.00000
  151   -0.00001
  152    0.00019
  153    0.00005
  154   -0.00006
  155   -0.00002
  156   -0.00002
  157   -0.00002
  158    0.00001
  159   -0.00001
  160    0.00000
  161    0.00000
  162    0.00001
  163   -0.00036
  164    0.00001
  165   -0.00001
  166    0.00001
  167    0.00012
  168   -0.00003
  169   -0.00001
  170   -0.00000
  171    0.00000
  172    0.00001
  173   -0.00000
  174   -0.00000
  175    0.00000
  176    0.00001
  177    0.00004
  178   -0.00020
  179    0.00000
  180   -0.00001
  181    0.00002
  182   -0.00005
  183    0.00018
  184   -0.00043
  185    0.00001
  186    0.00001
  187    0.00000
  188    0.00001
  189    0.00000
  190    0.00000
  191   -0.00002
  192   -0.00009
  193    0.00120
  194    0.00001
  195   -0.00001
  196    0.00001
  197   -0.00007
  198    0.00006
  199    0.00075
  200   -0.00004
  201   -0.00002
  202    0.00003
  203   -0.00001
  204   -0.00001
  205    0.00001
  206    0.00004
  207    0.00017
  208   -0.00152
  209   -0.00004
  210    0.00003
  211   -0.00003
  212    0.00034
  213   -0.00059
  214    0.00069
  215    0.00006
  216    0.00007
  217   -0.00003
  218   -0.00000
  219    0.00002
  220   -0.00003
  221    0.00004
  222    0.00019
  223   -0.00142
  224   -0.00000
  225   -0.00001
  226    0.00003
  227    0.00001
  228   -0.00006
  229   -0.00022
  230    0.00010
  231    0.00005
  232    0.00005
  233    0.00003
  234    0.00002
  235   -0.00003
  236   -0.00000
  237   -0.00002
  238   -0.00009
  239   -0.00001
  240    0.00001
  241   -0.00002
  242   -0.00008
  243    0.00024
  244    0.00061
  245   -0.00001
  246    0.00002
  247   -0.00001
  248   -0.00002
  249   -0.00001
  250    0.00002
  251   -0.00000
  252   -0.00003
  253    0.00081
  254   -0.00001
  255    0.00002
  256    0.00001
  257   -0.00004
  258    0.00007
  259    0.00020
  260   -0.00000
  261    0.00000
  262    0.00001
  263   -0.00001
  264    0.00000
  265   -0.00001
  266   -0.00004
  267   -0.00014
  268   -0.00003
  269    0.00002
  270   -0.00007
  271    0.00077
  272   -0.00006
  273    0.00021
  274   -0.00001
  275   -0.00004
 Ene=   -19.3138
 Spin= Alpha
 Occup= 1.0
    1   -0.00023
    2   -0.00034
    3   -0.00067
    4   -0.00012
    5   -0.00000
    6   -0.00001
    7   -0.00191
    8   -0.00094
    9    0.00043
   10    0.00032
   11    0.00007
   12   -0.00004
   13   -0.00010
   14   -0.00001
   15   -0.00001
   16   -0.00001
   17    0.00000
   18    0.00000
   19   -0.00062
   20   -0.00017
   21   -0.00027
   22   -0.00020
   23    0.00001
   24   -0.00002
   25    0.00028
   26   -0.00008
   27    0.00039
   28   -0.00001
   29   -0.00001
   30    0.00001
   31    0.00016
   32   -0.00012
   33   -0.00006
   34   -0.00004
   35   -0.00001
   36   -0.00001
   37   -0.00003
   38   -0.00001
   39    0.00000
   40    0.00002
   41    0.00011
   42   -0.00004
   43    0.00016
   44    0.99266
   45    0.02563
   46    0.01312
   47    0.00083
   48   -0.00052
   49   -0.00010
   50   -0.00093
   51   -0.00002
   52    0.00009
   53   -0.00826
   54   -0.00839
   55   -0.00843
   56    0.00003
   57    0.00001
   58    0.00001
   59    0.00034
   60   -0.00066
   61    0.00038
   62   -0.00098
   63   -0.00038
   64   -0.00003
   65    0.00004
   66   -0.00002
   67    0.00000
   68    0.00000
   69    0.00012
   70    0.00005
   71   -0.00002
   72   -0.00001
   73    0.00004
   74    0.00000
   75    0.00002
   76    0.00001
   77   -0.00001
   78   -0.00004
   79    0.00017
   80    0.00006
   81   -0.00025
   82   -0.00046
   83    0.00005
   84   -0.00039
   85    0.00000
   86   -0.00002
   87   -0.00001
   88    0.00008
   89    0.00010
   90    0.00002
   91    0.00014
   92    0.00003
   93    0.00004
   94    0.00003
   95   -0.00001
   96   -0.00000
   97    0.00001
   98   -0.00010
   99    0.00002
  100   -0.00009
  101   -0.00003
  102   -0.00014
  103    0.00106
  104    0.00001
  105   -0.00003
  106   -0.00001
  107   -0.00029
  108    0.00019
  109   -0.00005
  110   -0.00003
  111   -0.00007
  112   -0.00003
  113    0.00002
  114   -0.00006
  115   -0.00001
  116    0.00001
  117   -0.00002
  118   -0.00026
  119    0.00001
  120    0.00000
  121   -0.00007
  122   -0.00028
  123    0.00009
  124    0.00016
  125    0.00005
  126    0.00004
  127    0.00005
  128   -0.00000
  129    0.00002
  130   -0.00002
  131    0.00002
  132    0.00009
  133   -0.00061
  134   -0.00003
  135   -0.00002
  136   -0.00001
  137   -0.00061
  138   -0.00001
  139    0.00054
  140   -0.00000
  141    0.00006
  142    0.00002
  143   -0.00001
  144    0.00003
  145    0.00001
  146    0.00000
  147    0.00003
  148   -0.00038
  149    0.00001
  150   -0.00000
  151    0.00000
  152   -0.00015
  153    0.00001
  154   -0.00005
  155   -0.00000
  156    0.00001
  157    0.00001
  158   -0.00000
  159   -0.00001
  160    0.00000
  161   -0.00003
  162   -0.00010
  163    0.00068
  164   -0.00000
  165   -0.00002
  166    0.00002
  167   -0.00008
  168    0.00016
  169   -0.00023
  170   -0.00008
  171   -0.00005
  172   -0.00003
  173    0.00000
  174    0.00001
  175   -0.00004
  176   -0.00000
  177   -0.00002
  178    0.00053
  179    0.00000
  180   -0.00000
  181    0.00001
  182    0.00005
  183    0.00004
  184    0.00024
  185   -0.00000
  186    0.00000
  187   -0.00000
  188   -0.00000
  189    0.00000
  190    0.00000
  191    0.00000
  192    0.00002
  193   -0.00034
  194    0.00002
  195    0.00000
  196    0.00000
  197   -0.00024
  198    0.00025
  199   -0.00005
  200   -0.00000
  201    0.00000
  202    0.00001
  203    0.00001
  204   -0.00001
  205   -0.00000
  206   -0.00002
  207   -0.00005
  208    0.00059
  209   -0.00005
  210   -0.00002
  211   -0.00003
  212    0.00037
  213   -0.00037
  214    0.00003
  215   -0.00004
  216   -0.00001
  217   -0.00005
  218   -0.00002
  219    0.00001
  220    0.00000
  221    0.00001
  222    0.00003
  223   -0.00071
  224    0.00000
  225   -0.00002
  226   -0.00003
  227    0.00003
  228    0.00019
  229    0.00071
  230    0.00004
  231    0.00002
  232    0.00006
  233    0.00002
  234    0.00005
  235   -0.00000
  236   -0.00001
  237   -0.00007
  238    0.00084
  239   -0.00006
  240    0.00000
  241    0.00001
  242   -0.00002
  243    0.00062
  244   -0.00001
  245   -0.00003
  246    0.00001
  247   -0.00001
  248   -0.00002
  249    0.00001
  250    0.00002
  251    0.00001
  252    0.00003
  253   -0.00043
  254    0.00001
  255    0.00001
  256   -0.00001
  257    0.00002
  258   -0.00039
  259   -0.00013
  260    0.00001
  261   -0.00000
  262   -0.00000
  263   -0.00000
  264   -0.00001
  265   -0.00001
  266    0.00000
  267    0.00004
  268   -0.00002
  269   -0.00009
  270   -0.00004
  271    0.00029
  272   -0.00003
  273    0.00029
  274   -0.00002
  275   -0.00012
 Ene=   -19.3108
 Spin= Alpha
 Occup= 1.0
    1    0.00018
    2    0.00032
    3    0.00011
    4    0.00001
    5   -0.00010
    6   -0.00001
    7    0.00066
    8   -0.00171
    9    0.00004
   10   -0.00002
   11    0.00031
   12   -0.00004
   13    0.00003
   14    0.00011
   15    0.00005
   16   -0.00002
   17   -0.00000
   18   -0.00002
   19    0.00026
   20    0.00075
   21    0.00013
   22   -0.00009
   23    0.00002
   24    0.00005
   25   -0.00011
   26    0.00002
   27   -0.00001
   28    0.00002
   29    0.00000
   30    0.00000
   31   -0.00014
   32    0.00006
   33   -0.00003
   34    0.00002
   35   -0.00008
   36    0.00004
   37    0.00002
   38   -0.00000
   39   -0.00001
   40    0.00005
   41    0.00018
   42   -0.00004
   43    0.00026
   44   -0.00037
   45    0.00008
   46   -0.00033
   47   -0.00002
   48   -0.00003
   49    0.00001
   50    0.00019
   51    0.00022
   52   -0.00005
   53    0.00002
   54    0.00003
   55    0.00004
   56   -0.00003
   57    0.00000
   58   -0.00000
   59    0.00004
   60   -0.00022
   61    0.00002
   62   -0.00005
   63   -0.99265
   64   -0.02563
   65   -0.01310
   66    0.00020
   67    0.00060
   68   -0.00082
   69   -0.00001
   70   -0.00084
   71    0.00029
   72    0.00847
   73    0.00827
   74    0.00838
   75    0.00004
   76    0.00002
   77    0.00001
   78   -0.00038
   79    0.00098
   80   -0.00036
   81    0.00083
   82    0.00157
   83    0.00008
   84   -0.00012
   85   -0.00001
   86   -0.00003
   87   -0.00001
   88   -0.00008
   89    0.00019
   90    0.00005
   91   -0.00005
   92   -0.00000
   93   -0.00001
   94    0.00001
   95    0.00001
   96   -0.00000
   97    0.00000
   98   -0.00003
   99   -0.00002
  100    0.00014
  101   -0.00001
  102    0.00002
  103    0.00004
  104    0.00001
  105    0.00001
  106    0.00000
  107   -0.00041
  108    0.00012
  109    0.00018
  110   -0.00003
  111   -0.00002
  112   -0.00005
  113    0.00000
  114   -0.00000
  115   -0.00002
  116   -0.00000
  117    0.00004
  118    0.00018
  119    0.00002
  120   -0.00000
  121    0.00002
  122   -0.00034
  123    0.00018
  124   -0.00013
  125   -0.00002
  126   -0.00002
  127   -0.00004
  128   -0.00002
  129   -0.00001
  130   -0.00002
  131    0.00001
  132    0.00001
  133   -0.00017
  134    0.00001
  135   -0.00004
  136    0.00000
  137   -0.00056
  138    0.00015
  139    0.00024
  140    0.00002
  141    0.00002
  142    0.00001
  143   -0.00001
  144    0.00000
  145   -0.00001
  146    0.00000
  147    0.00002
  148   -0.00040
  149   -0.00000
  150    0.00000
  151    0.00001
  152   -0.00012
  153   -0.00005
  154   -0.00002
  155   -0.00000
  156    0.00000
  157    0.00001
  158   -0.00001
  159   -0.00001
  160    0.00000
  161    0.00002
  162    0.00005
  163   -0.00007
  164   -0.00001
  165   -0.00002
  166   -0.00004
  167    0.00005
  168    0.00007
  169    0.00020
  170    0.00004
  171    0.00006
  172    0.00003
  173   -0.00000
  174   -0.00003
  175   -0.00001
  176    0.00001
  177    0.00004
  178   -0.00012
  179   -0.00000
  180    0.00001
  181    0.00002
  182    0.00007
  183   -0.00023
  184   -0.00040
  185    0.00002
  186    0.00001
  187    0.00000
  188    0.00001
  189   -0.00000
  190   -0.00000
  191   -0.00000
  192   -0.00003
  193    0.00073
  194    0.00001
  195   -0.00001
  196    0.00001
  197    0.00004
  198   -0.00006
  199    0.00015
  200   -0.00000
  201    0.00001
  202    0.00001
  203   -0.00001
  204   -0.00000
  205    0.00001
  206   -0.00000
  207   -0.00002
  208   -0.00004
  209    0.00000
  210   -0.00001
  211   -0.00002
  212    0.00008
  213   -0.00024
  214    0.00051
  215   -0.00001
  216    0.00003
  217   -0.00002
  218   -0.00002
  219    0.00001
  220   -0.00002
  221    0.00004
  222    0.00018
  223   -0.00141
  224   -0.00001
  225   -0.00000
  226    0.00001
  227   -0.00004
  228    0.00024
  229    0.00005
  230    0.00008
  231    0.00002
  232    0.00005
  233    0.00003
  234   -0.00001
  235    0.00002
  236    0.00003
  237    0.00017
  238   -0.00139
  239    0.00004
  240   -0.00003
  241   -0.00003
  242   -0.00046
  243    0.00088
  244    0.00078
  245    0.00006
  246    0.00008
  247   -0.00004
  248   -0.00002
  249   -0.00002
  250    0.00004
  251   -0.00002
  252   -0.00009
  253    0.00119
  254   -0.00001
  255    0.00001
  256    0.00001
  257    0.00013
  258   -0.00017
  259    0.00080
  260   -0.00004
  261   -0.00002
  262    0.00003
  263   -0.00001
  264    0.00001
  265   -0.00001
  266   -0.00004
  267   -0.00014
  268   -0.00001
  269   -0.00004
  270   -0.00005
  271    0.00018
  272   -0.00006
  273    0.00098
  274   -0.00004
  275   -0.00002
 Ene=   -19.3100
 Spin= Alpha
 Occup= 1.0
    1   -0.00023
    2   -0.00032
    3   -0.00059
    4    0.00013
    5    0.00001
    6   -0.00001
    7    0.00191
    8    0.00090