[Molden Format]
[Title]
Written by TeraChem
[Atoms] Angs
Mn   1   15      0.08932   -0.08167    0.18225
P   2   15     -0.46108    2.64995    0.01869
H   3   1     -1.07239    3.16380    1.18866
H   4   1      0.69355    3.46049    0.05618
H   5   1     -1.19283    3.41823   -0.91896
P   6   15      2.87418    0.32671   -0.49593
H   7   1      3.39994    1.60421   -0.19477
H   8   1      3.80207   -0.41934    0.26759
H   9   1      3.50258    0.16677   -1.75259
P   10   15      0.42192   -2.85483    0.41648
H   11   1      1.77427   -3.23736    0.55139
H   12   1     -0.02541   -3.37621    1.65460
H   13   1      0.00857   -3.93347   -0.40208
P   14   15     -2.65328   -0.51634    0.67486
H   15   1     -3.28529   -1.70634    0.25431
H   16   1     -3.01957   -0.59217    2.04180
H   17   1     -3.66172    0.38413    0.26772
C   18   6     -0.14420   -0.27791   -2.35819
C   19   6      0.40072    0.98662   -2.74808
C   20   6     -1.56042   -0.43618   -2.46705
C   21   6      0.67001   -1.43102   -2.59110
N   22   7      1.35829   -2.36750   -2.70366
N   23   7     -2.72197   -0.55571   -2.48349
N   24   7      0.85749    2.03344   -2.99198
S   25   16      1.05406    0.24593    2.35380
C   26   6     -0.23390    0.44267    3.67312
C   27   6     -0.59983   -0.87238    4.35864
H   28   1     -1.31658   -0.69994    5.17298
H   29   1      0.28932   -1.35080    4.78147
H   30   1     -1.05187   -1.57673    3.65082
H   31   1     -1.12540    0.91898    3.25027
H   32   1      0.18502    1.14123    4.40415
[GTO]
    1 0
 s    3 1.00
            5.914000            -0.376451
            1.605000             0.772479
            0.626000             0.476935
 s    4 1.00
            5.914000             0.211997
            1.605000            -0.519947
            0.626000            -0.585768
            0.111500             1.100396
 s    1 1.00
            0.038000             1.000000
 p    3 1.00
           18.200000            -0.044790
            2.141000             0.626031
            0.700900             0.469633
 p    1 1.00
            0.069000             1.000000
 p    1 1.00
            0.021000             1.000000
 d    4 1.00
           32.270000             0.034158
            8.875000             0.176110
            2.890000             0.439430
            0.876100             0.594327
 d    1 1.00
            0.212000             1.000000

    2 0
 s    6 1.00
        19413.300000             0.001852
         2909.420000             0.014206
          661.364000             0.069999
          185.759000             0.240079
           59.194300             0.484762
           20.031000             0.335200
 s    6 1.00
          339.478000            -0.002782
           81.010100            -0.036050
           25.878000            -0.116631
            9.452210             0.096833
            3.665660             0.614418
            1.467460             0.403798
 s    3 1.00
            2.156230            -0.252924
            0.748997             0.032852
            0.283145             1.081255
 s    1 1.00
            0.099832             1.000000
 p    6 1.00
          339.478000             0.004565
           81.010100             0.033694
           25.878000             0.139755
            9.452210             0.339362
            3.665660             0.450921
            1.467460             0.238586
 p    3 1.00
            2.156230            -0.017765
            0.748997             0.274058
            0.283145             0.785422
 p    1 1.00
            0.099832             1.000000
 d    1 1.00
            0.550000             1.000000

    3 0
 s    3 1.00
           18.731137             0.033495
            2.825394             0.234727
            0.640122             0.813757
 s    1 1.00
            0.161278             1.000000

    4 0
 s    3 1.00
           18.731137             0.033495
            2.825394             0.234727
            0.640122             0.813757
 s    1 1.00
            0.161278             1.000000

    5 0
 s    3 1.00
           18.731137             0.033495
            2.825394             0.234727
            0.640122             0.813757
 s    1 1.00
            0.161278             1.000000

    6 0
 s    6 1.00
        19413.300000             0.001852
         2909.420000             0.014206
          661.364000             0.069999
          185.759000             0.240079
           59.194300             0.484762
           20.031000             0.335200
 s    6 1.00
          339.478000            -0.002782
           81.010100            -0.036050
           25.878000            -0.116631
            9.452210             0.096833
            3.665660             0.614418
            1.467460             0.403798
 s    3 1.00
            2.156230            -0.252924
            0.748997             0.032852
            0.283145             1.081255
 s    1 1.00
            0.099832             1.000000
 p    6 1.00
          339.478000             0.004565
           81.010100             0.033694
           25.878000             0.139755
            9.452210             0.339362
            3.665660             0.450921
            1.467460             0.238586
 p    3 1.00
            2.156230            -0.017765
            0.748997             0.274058
            0.283145             0.785422
 p    1 1.00
            0.099832             1.000000
 d    1 1.00
            0.550000             1.000000

    7 0
 s    3 1.00
           18.731137             0.033495
            2.825394             0.234727
            0.640122             0.813757
 s    1 1.00
            0.161278             1.000000

    8 0
 s    3 1.00
           18.731137             0.033495
            2.825394             0.234727
            0.640122             0.813757
 s    1 1.00
            0.161278             1.000000

    9 0
 s    3 1.00
           18.731137             0.033495
            2.825394             0.234727
            0.640122             0.813757
 s    1 1.00
            0.161278             1.000000

   10 0
 s    6 1.00
        19413.300000             0.001852
         2909.420000             0.014206
          661.364000             0.069999
          185.759000             0.240079
           59.194300             0.484762
           20.031000             0.335200
 s    6 1.00
          339.478000            -0.002782
           81.010100            -0.036050
           25.878000            -0.116631
            9.452210             0.096833
            3.665660             0.614418
            1.467460             0.403798
 s    3 1.00
            2.156230            -0.252924
            0.748997             0.032852
            0.283145             1.081255
 s    1 1.00
            0.099832             1.000000
 p    6 1.00
          339.478000             0.004565
           81.010100             0.033694
           25.878000             0.139755
            9.452210             0.339362
            3.665660             0.450921
            1.467460             0.238586
 p    3 1.00
            2.156230            -0.017765
            0.748997             0.274058
            0.283145             0.785422
 p    1 1.00
            0.099832             1.000000
 d    1 1.00
            0.550000             1.000000

   11 0
 s    3 1.00
           18.731137             0.033495
            2.825394             0.234727
            0.640122             0.813757
 s    1 1.00
            0.161278             1.000000

   12 0
 s    3 1.00
           18.731137             0.033495
            2.825394             0.234727
            0.640122             0.813757
 s    1 1.00
            0.161278             1.000000

   13 0
 s    3 1.00
           18.731137             0.033495
            2.825394             0.234727
            0.640122             0.813757
 s    1 1.00
            0.161278             1.000000

   14 0
 s    6 1.00
        19413.300000             0.001852
         2909.420000             0.014206
          661.364000             0.069999
          185.759000             0.240079
           59.194300             0.484762
           20.031000             0.335200
 s    6 1.00
          339.478000            -0.002782
           81.010100            -0.036050
           25.878000            -0.116631
            9.452210             0.096833
            3.665660             0.614418
            1.467460             0.403798
 s    3 1.00
            2.156230            -0.252924
            0.748997             0.032852
            0.283145             1.081255
 s    1 1.00
            0.099832             1.000000
 p    6 1.00
          339.478000             0.004565
           81.010100             0.033694
           25.878000             0.139755
            9.452210             0.339362
            3.665660             0.450921
            1.467460             0.238586
 p    3 1.00
            2.156230            -0.017765
            0.748997             0.274058
            0.283145             0.785422
 p    1 1.00
            0.099832             1.000000
 d    1 1.00
            0.550000             1.000000

   15 0
 s    3 1.00
           18.731137             0.033495
            2.825394             0.234727
            0.640122             0.813757
 s    1 1.00
            0.161278             1.000000

   16 0
 s    3 1.00
           18.731137             0.033495
            2.825394             0.234727
            0.640122             0.813757
 s    1 1.00
            0.161278             1.000000

   17 0
 s    3 1.00
           18.731137             0.033495
            2.825394             0.234727
            0.640122             0.813757
 s    1 1.00
            0.161278             1.000000

   18 0
 s    6 1.00
         3047.524900             0.001835
          457.369510             0.014037
          103.948690             0.068843
           29.210155             0.232184
            9.286663             0.467941
            3.163927             0.362312
 s    3 1.00
            7.868272            -0.119332
            1.881288            -0.160854
            0.544249             1.143456
 s    1 1.00
            0.168714             1.000000
 p    3 1.00
            7.868272             0.068999
            1.881288             0.316424
            0.544249             0.744308
 p    1 1.00
            0.168714             1.000000
 d    1 1.00
            0.800000             1.000000

   19 0
 s    6 1.00
         3047.524900             0.001835
          457.369510             0.014037
          103.948690             0.068843
           29.210155             0.232184
            9.286663             0.467941
            3.163927             0.362312
 s    3 1.00
            7.868272            -0.119332
            1.881288            -0.160854
            0.544249             1.143456
 s    1 1.00
            0.168714             1.000000
 p    3 1.00
            7.868272             0.068999
            1.881288             0.316424
            0.544249             0.744308
 p    1 1.00
            0.168714             1.000000
 d    1 1.00
            0.800000             1.000000

   20 0
 s    6 1.00
         3047.524900             0.001835
          457.369510             0.014037
          103.948690             0.068843
           29.210155             0.232184
            9.286663             0.467941
            3.163927             0.362312
 s    3 1.00
            7.868272            -0.119332
            1.881288            -0.160854
            0.544249             1.143456
 s    1 1.00
            0.168714             1.000000
 p    3 1.00
            7.868272             0.068999
            1.881288             0.316424
            0.544249             0.744308
 p    1 1.00
            0.168714             1.000000
 d    1 1.00
            0.800000             1.000000

   21 0
 s    6 1.00
         3047.524900             0.001835
          457.369510             0.014037
          103.948690             0.068843
           29.210155             0.232184
            9.286663             0.467941
            3.163927             0.362312
 s    3 1.00
            7.868272            -0.119332
            1.881288            -0.160854
            0.544249             1.143456
 s    1 1.00
            0.168714             1.000000
 p    3 1.00
            7.868272             0.068999
            1.881288             0.316424
            0.544249             0.744308
 p    1 1.00
            0.168714             1.000000
 d    1 1.00
            0.800000             1.000000

   22 0
 s    6 1.00
         4173.511000             0.001835
          627.457900             0.013995
          142.902100             0.068587
           40.234330             0.232241
           12.820210             0.469070
            4.390437             0.360455
 s    3 1.00
           11.626358            -0.114961
            2.716280            -0.169118
            0.772218             1.145852
 s    1 1.00
            0.212031             1.000000
 p    3 1.00
           11.626358             0.067580
            2.716280             0.323907
            0.772218             0.740895
 p    1 1.00
            0.212031             1.000000
 d    1 1.00
            0.800000             1.000000

   23 0
 s    6 1.00
         4173.511000             0.001835
          627.457900             0.013995
          142.902100             0.068587
           40.234330             0.232241
           12.820210             0.469070
            4.390437             0.360455
 s    3 1.00
           11.626358            -0.114961
            2.716280            -0.169118
            0.772218             1.145852
 s    1 1.00
            0.212031             1.000000
 p    3 1.00
           11.626358             0.067580
            2.716280             0.323907
            0.772218             0.740895
 p    1 1.00
            0.212031             1.000000
 d    1 1.00
            0.800000             1.000000

   24 0
 s    6 1.00
         4173.511000             0.001835
          627.457900             0.013995
          142.902100             0.068587
           40.234330             0.232241
           12.820210             0.469070
            4.390437             0.360455
 s    3 1.00
           11.626358            -0.114961
            2.716280            -0.169118
            0.772218             1.145852
 s    1 1.00
            0.212031             1.000000
 p    3 1.00
           11.626358             0.067580
            2.716280             0.323907
            0.772218             0.740895
 p    1 1.00
            0.212031             1.000000
 d    1 1.00
            0.800000             1.000000

   25 0
 s    6 1.00
        21917.100000             0.001869
         3301.490000             0.014230
          754.146000             0.069696
          212.711000             0.238487
           67.989600             0.483307
           23.051500             0.338074
 s    6 1.00
          423.735000            -0.002377
          100.710000            -0.031693
           32.159900            -0.113317
           11.807900             0.056090
            4.631100             0.592255
            1.870250             0.455006
 s    3 1.00
            2.615840            -0.250373
            0.922167             0.066957
            0.341287             1.054506
 s    1 1.00
            0.117167             1.000000
 p    6 1.00
          423.735000             0.004061
          100.710000             0.030681
           32.159900             0.130452
           11.807900             0.327205
            4.631100             0.452851
            1.870250             0.256042
 p    3 1.00
            2.615840            -0.014511
            0.922167             0.310263
            0.341287             0.754483
 p    1 1.00
            0.117167             1.000000
 d    1 1.00
            0.650000             1.000000

   26 0
 s    6 1.00
         3047.524900             0.001835
          457.369510             0.014037
          103.948690             0.068843
           29.210155             0.232184
            9.286663             0.467941
            3.163927             0.362312
 s    3 1.00
            7.868272            -0.119332
            1.881288            -0.160854
            0.544249             1.143456
 s    1 1.00
            0.168714             1.000000
 p    3 1.00
            7.868272             0.068999
            1.881288             0.316424
            0.544249             0.744308
 p    1 1.00
            0.168714             1.000000
 d    1 1.00
            0.800000             1.000000

   27 0
 s    6 1.00
         3047.524900             0.001835
          457.369510             0.014037
          103.948690             0.068843
           29.210155             0.232184
            9.286663             0.467941
            3.163927             0.362312
 s    3 1.00
            7.868272            -0.119332
            1.881288            -0.160854
            0.544249             1.143456
 s    1 1.00
            0.168714             1.000000
 p    3 1.00
            7.868272             0.068999
            1.881288             0.316424
            0.544249             0.744308
 p    1 1.00
            0.168714             1.000000
 d    1 1.00
            0.800000             1.000000

   28 0
 s    3 1.00
           18.731137             0.033495
            2.825394             0.234727
            0.640122             0.813757
 s    1 1.00
            0.161278             1.000000

   29 0
 s    3 1.00
           18.731137             0.033495
            2.825394             0.234727
            0.640122             0.813757
 s    1 1.00
            0.161278             1.000000

   30 0
 s    3 1.00
           18.731137             0.033495
            2.825394             0.234727
            0.640122             0.813757
 s    1 1.00
            0.161278             1.000000

   31 0
 s    3 1.00
           18.731137             0.033495
            2.825394             0.234727
            0.640122             0.813757
 s    1 1.00
            0.161278             1.000000

   32 0
 s    3 1.00
           18.731137             0.033495
            2.825394             0.234727
            0.640122             0.813757
 s    1 1.00
            0.161278             1.000000

[MO]
 Ene=   -88.8314
 Spin= Alpha
 Occup= 1.0
    1   -0.00000
    2   -0.00004
    3    0.00119
    4    0.00001
    5    0.00000
    6    0.00001
    7    0.00001
    8    0.00002
    9    0.00060
   10    0.00009
   11    0.00001
   12    0.00010
   13   -0.00001
   14   -0.00000
   15   -0.00002
   16   -0.00000
   17   -0.00001
   18   -0.00000
   19   -0.00000
   20   -0.00002
   21   -0.00010
   22   -0.00000
   23   -0.00004
   24   -0.00001
   25    0.00000
   26   -0.00001
   27    0.00002
   28   -0.00000
   29    0.00000
   30   -0.00000
   31    0.00000
   32   -0.00001
   33    0.00002
   34   -0.00002
   35    0.00008
   36    0.00009
   37    0.00010
   38   -0.00002
   39   -0.00002
   40   -0.00001
   41   -0.00000
   42    0.00000
   43    0.00000
   44    0.00001
   45   -0.00013
   46    0.00003
   47   -0.00018
   48   -0.00001
   49    0.00003
   50    0.00000
   51   -0.00001
   52   -0.00001
   53   -0.00001
   54    0.00000
   55    0.00000
   56   -0.00000
   57   -0.00000
   58   -0.00001
   59   -0.00001
   60    0.00004
   61    0.00007
   62    0.00018
   63    0.00000
   64   -0.00001
   65    0.00002
   66    0.00000
   67   -0.00001
   68   -0.00000
   69    0.00002
   70   -0.00015
   71    0.00001
   72   -0.00011
   73   -0.00001
   74    0.00007
   75    0.00000
   76   -0.00000
   77    0.00003
   78   -0.00004
   79    0.00000
   80    0.00000
   81    0.00000
   82   -0.00001
   83   -0.00003
   84   -0.00002
   85    0.00010
   86   -0.00006
   87    0.00010
   88   -0.00002
   89   -0.00002
   90   -0.00001
   91    0.00000
   92    0.00000
   93    0.00000
   94    0.00003
   95   -0.00018
   96    0.00001
   97   -0.00013
   98   -0.00001
   99    0.00002
  100    0.00000
  101    0.00001
  102    0.00008
  103   -0.00037
  104    0.00000
  105    0.00000
  106   -0.00000
  107   -0.00000
  108   -0.00000
  109    0.00001
  110   -0.00015
  111   -0.00003
  112   -0.00007
  113   -0.00001
  114    0.00001
  115    0.00001
  116   -0.00000
  117   -0.00001
  118   -0.00000
  119    0.00001
  120   -0.00002
  121    0.00000
  122    0.00003
  123    0.00001
  124   -0.00002
  125   -0.00001
  126   -0.00004
  127    0.00032
  128    0.00000
  129   -0.00000
  130   -0.00002
  131   -0.00004
  132    0.00001
  133    0.00008
  134   -0.00002
  135   -0.00002
  136   -0.00002
  137    0.00000
  138    0.00000
  139    0.00000
  140   -0.00000
  141   -0.00000
  142   -0.00003
  143    0.00000
  144    0.00000
  145   -0.00000
  146    0.00002
  147    0.00002
  148   -0.00001
  149   -0.00000
  150    0.00000
  151   -0.00000
  152    0.00000
  153    0.00000
  154    0.00000
  155   -0.00000
  156    0.00000
  157   -0.00002
  158   -0.00001
  159   -0.00000
  160   -0.00001
  161   -0.00012
  162   -0.00001
  163   -0.00000
  164   -0.00000
  165   -0.00001
  166   -0.00000
  167    0.00000
  168   -0.00001
  169    0.00000
  170   -0.00000
  171   -0.00001
  172   -0.00002
  173    0.00000
  174   -0.00000
  175   -0.00000
  176    0.00003
  177   -0.00001
  178   -0.00001
  179   -0.00000
  180   -0.00000
  181   -0.00000
  182   -0.00000
  183    0.00000
  184   -0.00000
  185    0.00000
  186    0.00000
  187   -0.00003
  188    0.00000
  189   -0.00000
  190    0.00000
  191   -0.00001
  192   -0.00000
  193   -0.00000
  194    0.00000
  195    0.00000
  196    0.00000
  197   -0.00000
  198   -0.00000
  199   -0.00000
  200    0.00000
  201    0.00001
  202   -0.00012
  203   -0.00000
  204   -0.00000
  205    0.00000
  206   -0.00003
  207   -0.00000
  208   -0.00001
  209    0.00000
  210    0.00001
  211    0.00001
  212   -0.00000
  213   -0.00000
  214    0.00000
  215    0.00000
  216    0.00000
  217   -0.00004
  218    0.00000
  219    0.00000
  220    0.00000
  221   -0.00001
  222   -0.00000
  223   -0.00001
  224    0.00000
  225    0.00001
  226    0.00000
  227    0.00000
  228   -0.00000
  229   -0.00000
  230   -0.99610
  231   -0.01483
  232    0.02440
  233   -0.00411
  234    0.00006
  235    0.00000
  236    0.00000
  237   -0.00011
  238   -0.00002
  239   -0.00009
  240    0.00026
  241    0.00007
  242    0.00041
  243   -0.00840
  244   -0.00841
  245   -0.00838
  246   -0.00000
  247   -0.00001
  248   -0.00000
  249    0.00001
  250   -0.00003
  251   -0.00024
  252   -0.00006
  253    0.00001
  254    0.00008
  255   -0.00006
  256    0.00012
  257   -0.00015
  258    0.00003
  259   -0.00000
  260    0.00004
  261   -0.00001
  262   -0.00001
  263    0.00001
  264   -0.00001
  265   -0.00006
  266    0.00030
  267    0.00001
  268    0.00002
  269   -0.00001
  270    0.00010
  271    0.00009
  272   -0.00011
  273    0.00002
  274    0.00001
  275    0.00001
  276    0.00002
  277   -0.00001
  278   -0.00001
  279    0.00000
  280    0.00001
  281   -0.00003
  282    0.00002
  283   -0.00001
  284   -0.00006
  285    0.00005
  286   -0.00008
  287    0.00005
  288    0.00012
 Ene=   -77.1241
 Spin= Alpha
 Occup= 1.0
    1    0.00002
    2    0.00006
    3   -0.00165
    4    0.00003
    5    0.00000
    6   -0.00001
    7    0.00046
    8    0.00005
    9   -0.00024
   10    0.00034
   11    0.00006
   12   -0.00010
   13    0.00002
   14    0.00004
   15    0.00005
   16   -0.00000
   17    0.00001
   18    0.00000
   19    0.00009
   20    0.00007
   21   -0.00001
   22    0.00000
   23   -0.00005
   24   -0.00001
   25    0.00012
   26    0.00001
   27   -0.00003
   28    0.00005
   29    0.00000
   30    0.00000
   31    0.00000
   32   -0.00003
   33   -0.00004
   34   -0.00001
   35    0.00021
   36   -0.00009
   37    0.00001
   38    0.00003
   39    0.00002
   40    0.00003
   41   -0.00000
   42    0.00001
   43    0.00000
   44   -0.00002
   45    0.00020
   46    0.00001
   47   -0.00005
   48   -0.00004
   49    0.00021
   50   -0.00004
   51    0.00000
   52    0.00003
   53   -0.00008
   54   -0.00000
   55   -0.00000
   56    0.00000
   57    0.00002
   58    0.00000
   59   -0.00001
   60   -0.00003
   61   -0.00001
   62    0.00002
   63   -0.00001
   64    0.00001
   65    0.00001
   66   -0.00000
   67    0.00001
   68    0.00000
   69    0.00000
   70    0.00001
   71    0.00000
   72    0.00002
   73    0.00000
   74    0.00001
   75    0.00011
   76    0.00001
   77   -0.00003
   78    0.00003
   79    0.00001
   80   -0.00000
   81    0.00000
   82   -0.00004
   83    0.00003
   84   -0.00001
   85    0.00019
   86    0.00015
   87    0.00001
   88    0.00002
   89    0.00003
   90    0.00003
   91    0.00001
   92    0.00001
   93   -0.00000
   94    0.00001
   95   -0.00006
   96   -0.00002
   97    0.00020
   98   -0.00004
   99    0.00022
  100    0.99624
  101    0.01411
  102   -0.02730
  103    0.00606
  104   -0.00002
  105   -0.00001
  106   -0.00000
  107   -0.00017
  108   -0.00002
  109    0.00008
  110    0.00041
  111    0.00004
  112   -0.00019
  113    0.00928
  114    0.00925
  115    0.00924
  116    0.00001
  117    0.00000
  118    0.00000
  119    0.00015
  120   -0.00043
  121    0.00013
  122   -0.00029
  123    0.00015
  124   -0.00041
  125   -0.00000
  126   -0.00003
  127    0.00021
  128   -0.00001
  129   -0.00000
  130    0.00000
  131   -0.00024
  132    0.00003
  133    0.00007
  134    0.00000
  135   -0.00001
  136    0.00000
  137    0.00000
  138   -0.00001
  139   -0.00000
  140   -0.00001
  141   -0.00003
  142    0.00028
  143    0.00002
  144   -0.00000
  145   -0.00001
  146   -0.00004
  147   -0.00000
  148    0.00004
  149   -0.00003
  150   -0.00002
  151   -0.00003
  152   -0.00000
  153   -0.00000
  154   -0.00000
  155    0.00001
  156    0.00005
  157   -0.00003
  158    0.00002
  159   -0.00000
  160    0.00001
  161   -0.00037
  162   -0.00004
  163   -0.00008
  164   -0.00000
  165    0.00002
  166   -0.00002
  167   -0.00001
  168   -0.00000
  169    0.00000
  170   -0.00001
  171   -0.00004
  172    0.00039
  173    0.00002
  174    0.00001
  175   -0.00001
  176   -0.00008
  177    0.00002
  178    0.00007
  179   -0.00003
  180   -0.00002
  181   -0.00004
  182   -0.00001
  183   -0.00000
  184   -0.00000
  185    0.00000
  186    0.00001
  187   -0.00008
  188    0.00000
  189    0.00000
  190    0.00000
  191    0.00003
  192   -0.00003
  193   -0.00002
  194    0.00000
  195    0.00001
  196    0.00001
  197    0.00000
  198    0.00000
  199   -0.00000
  200    0.00002
  201    0.00007
  202   -0.00048
  203   -0.00000
  204   -0.00000
  205    0.00001
  206   -0.00008
  207   -0.00001
  208   -0.00014
  209    0.00004
  210    0.00005
  211   -0.00001
  212   -0.00000
  213    0.00001
  214    0.00000
  215    0.00000
  216    0.00001
  217   -0.00008
  218    0.00000
  219   -0.00000
  220    0.00000
  221    0.00002
  222    0.00002
  223   -0.00001
  224    0.00001
  225    0.00001
  226    0.00000
  227   -0.00000
  228    0.00000
  229    0.00000
  230   -0.00000
  231   -0.00002
  232   -0.00010
  233    0.00062
  234    0.00001
  235    0.00000
  236   -0.00000
  237   -0.00003
  238   -0.00001
  239    0.00001
  240   -0.00017
  241   -0.00003
  242   -0.00005
  243   -0.00001
  244   -0.00003
  245   -0.00001
  246    0.00001
  247   -0.00000
  248   -0.00000
  249    0.00001
  250    0.00002
  251   -0.00016
  252   -0.00000
  253   -0.00003
  254   -0.00002
  255   -0.00005
  256    0.00019
  257    0.00011
  258    0.00002
  259    0.00001
  260    0.00002
  261    0.00000
  262    0.00001
  263    0.00001
  264   -0.00001
  265   -0.00003
  266    0.00022
  267   -0.00001
  268    0.00002
  269   -0.00000
  270    0.00005
  271   -0.00005
  272   -0.00013
  273   -0.00000
  274   -0.00001
  275    0.00000
  276    0.00000
  277    0.00000
  278   -0.00001
  279   -0.00001
  280    0.00008
  281   -0.00002
  282    0.00000
  283    0.00001
  284   -0.00009
  285    0.00002
  286   -0.00003
  287   -0.00002
  288   -0.00003
 Ene=   -77.1154
 Spin= Alpha
 Occup= 1.0
    1    0.00004
    2    0.00009
    3   -0.00221
    4    0.00001
    5   -0.00001
    6   -0.00000
    7   -0.00009
    8   -0.00074
    9    0.00011
   10    0.00010
   11   -0.00035
   12    0.00001
   13    0.00007
   14    0.00006
   15    0.00007
   16    0.00001
   17    0.00000
   18    0.00000
   19    0.00015
   20    0.00018
   21    0.00020
   22   -0.00002
   23   -0.00001
   24   -0.00000
   25    0.99624
   26    0.01410
   27   -0.02732
   28    0.00630
   29    0.00000
   30    0.00002
   31    0.00001
   32   -0.00005
   33    0.00017
   34    0.00001
   35    0.00025
   36   -0.00051
   37    0.00004
   38    0.00925
   39    0.00927
   40    0.00923
   41   -0.00000
   42   -0.00000
   43    0.00000
   44    0.00013
   45   -0.00033
   46    0.00015
   47   -0.00046
   48    0.00014
   49   -0.00032
   50    0.00012
   51   -0.00001
   52   -0.00009
   53    0.00046
   54    0.00001
   55   -0.00000
   56    0.00000
   57   -0.00004
   58    0.00001
   59    0.00000
   60   -0.00015
   61   -0.00005
   62    0.00004
   63    0.00002
   64   -0.00001
   65    0.00001
   66    0.00000
   67    0.00000
   68   -0.00000
   69   -0.00001
   70    0.00008
   71   -0.00000
   72   -0.00001
   73   -0.00002
   74    0.00004
   75    0.00035
   76    0.00001
   77   -0.00001
   78   -0.00004
   79   -0.00000
   80    0.00001
   81    0.00000
   82    0.00001
   83   -0.00004
   84   -0.00000
   85   -0.00003
   86    0.00006
   87    0.00000
   88    0.00001
   89   -0.00002
   90    0.00002