[Molden Format]
[Title]
Written by TeraChem
[Atoms] Angs
Mn   1   15     -0.22245    0.00507   -0.10993
O   2   8      0.20058    2.18801   -0.00488
H   3   1      1.15230    2.24677    0.19712
H   4   1     -0.25455    2.73312    0.66030
O   5   8      2.13513    0.04164    0.09441
H   6   1      2.84797   -0.02284   -0.56070
H   7   1      2.53047   -0.11310    0.98502
O   8   8      0.19423   -2.20731   -0.03459
H   9   1      1.12247   -2.30904    0.24209
H   10   1     -0.32848   -2.72843    0.59969
O   11   8     -2.39790    0.07325    0.15517
H   12   1     -2.74806    0.23351    1.06141
H   13   1     -3.13070    0.16007   -0.47413
N   14   7     -0.17722   -0.11421    2.11471
C   15   6      0.99631   -0.37587    2.66956
C   16   6     -1.26948    0.27149    2.76416
N   17   7     -2.34278    0.61794    3.08554
N   18   7      2.12007   -0.62830    2.89594
C   19   6     -0.00095   -0.00776   -5.12893
C   20   6     -0.06149    1.19328   -4.42156
C   21   6     -0.10592    1.15280   -3.03265
N   22   7     -0.09673   -0.00427   -2.33239
C   23   6     -0.03478   -1.16350   -3.02656
C   24   6      0.01448   -1.20649   -4.41532
H   25   1      0.03507   -0.00983   -6.21414
H   26   1     -0.07297    2.15002   -4.93305
H   27   1     -0.14729    2.06326   -2.44504
H   28   1     -0.02233   -2.07118   -2.43352
H   29   1      0.06507   -2.16490   -4.92094
[GTO]
    1 0
 s    3 1.00
            5.914000            -0.376451
            1.605000             0.772479
            0.626000             0.476935
 s    4 1.00
            5.914000             0.211997
            1.605000            -0.519947
            0.626000            -0.585768
            0.111500             1.100396
 s    1 1.00
            0.038000             1.000000
 p    3 1.00
           18.200000            -0.044790
            2.141000             0.626031
            0.700900             0.469633
 p    1 1.00
            0.069000             1.000000
 p    1 1.00
            0.021000             1.000000
 d    4 1.00
           32.270000             0.034158
            8.875000             0.176110
            2.890000             0.439430
            0.876100             0.594327
 d    1 1.00
            0.212000             1.000000

    2 0
 s    6 1.00
         5484.671700             0.001831
          825.234950             0.013950
          188.046960             0.068445
           52.964500             0.232714
           16.897570             0.470193
            5.799635             0.358521
 s    3 1.00
           15.539616            -0.110778
            3.599934            -0.148026
            1.013762             1.130767
 s    1 1.00
            0.270006             1.000000
 p    3 1.00
           15.539616             0.070874
            3.599934             0.339753
            1.013762             0.727159
 p    1 1.00
            0.270006             1.000000
 d    1 1.00
            0.800000             1.000000

    3 0
 s    3 1.00
           18.731137             0.033495
            2.825394             0.234727
            0.640122             0.813757
 s    1 1.00
            0.161278             1.000000

    4 0
 s    3 1.00
           18.731137             0.033495
            2.825394             0.234727
            0.640122             0.813757
 s    1 1.00
            0.161278             1.000000

    5 0
 s    6 1.00
         5484.671700             0.001831
          825.234950             0.013950
          188.046960             0.068445
           52.964500             0.232714
           16.897570             0.470193
            5.799635             0.358521
 s    3 1.00
           15.539616            -0.110778
            3.599934            -0.148026
            1.013762             1.130767
 s    1 1.00
            0.270006             1.000000
 p    3 1.00
           15.539616             0.070874
            3.599934             0.339753
            1.013762             0.727159
 p    1 1.00
            0.270006             1.000000
 d    1 1.00
            0.800000             1.000000

    6 0
 s    3 1.00
           18.731137             0.033495
            2.825394             0.234727
            0.640122             0.813757
 s    1 1.00
            0.161278             1.000000

    7 0
 s    3 1.00
           18.731137             0.033495
            2.825394             0.234727
            0.640122             0.813757
 s    1 1.00
            0.161278             1.000000

    8 0
 s    6 1.00
         5484.671700             0.001831
          825.234950             0.013950
          188.046960             0.068445
           52.964500             0.232714
           16.897570             0.470193
            5.799635             0.358521
 s    3 1.00
           15.539616            -0.110778
            3.599934            -0.148026
            1.013762             1.130767
 s    1 1.00
            0.270006             1.000000
 p    3 1.00
           15.539616             0.070874
            3.599934             0.339753
            1.013762             0.727159
 p    1 1.00
            0.270006             1.000000
 d    1 1.00
            0.800000             1.000000

    9 0
 s    3 1.00
           18.731137             0.033495
            2.825394             0.234727
            0.640122             0.813757
 s    1 1.00
            0.161278             1.000000

   10 0
 s    3 1.00
           18.731137             0.033495
            2.825394             0.234727
            0.640122             0.813757
 s    1 1.00
            0.161278             1.000000

   11 0
 s    6 1.00
         5484.671700             0.001831
          825.234950             0.013950
          188.046960             0.068445
           52.964500             0.232714
           16.897570             0.470193
            5.799635             0.358521
 s    3 1.00
           15.539616            -0.110778
            3.599934            -0.148026
            1.013762             1.130767
 s    1 1.00
            0.270006             1.000000
 p    3 1.00
           15.539616             0.070874
            3.599934             0.339753
            1.013762             0.727159
 p    1 1.00
            0.270006             1.000000
 d    1 1.00
            0.800000             1.000000

   12 0
 s    3 1.00
           18.731137             0.033495
            2.825394             0.234727
            0.640122             0.813757
 s    1 1.00
            0.161278             1.000000

   13 0
 s    3 1.00
           18.731137             0.033495
            2.825394             0.234727
            0.640122             0.813757
 s    1 1.00
            0.161278             1.000000

   14 0
 s    6 1.00
         4173.511000             0.001835
          627.457900             0.013995
          142.902100             0.068587
           40.234330             0.232241
           12.820210             0.469070
            4.390437             0.360455
 s    3 1.00
           11.626358            -0.114961
            2.716280            -0.169118
            0.772218             1.145852
 s    1 1.00
            0.212031             1.000000
 p    3 1.00
           11.626358             0.067580
            2.716280             0.323907
            0.772218             0.740895
 p    1 1.00
            0.212031             1.000000
 d    1 1.00
            0.800000             1.000000

   15 0
 s    6 1.00
         3047.524900             0.001835
          457.369510             0.014037
          103.948690             0.068843
           29.210155             0.232184
            9.286663             0.467941
            3.163927             0.362312
 s    3 1.00
            7.868272            -0.119332
            1.881288            -0.160854
            0.544249             1.143456
 s    1 1.00
            0.168714             1.000000
 p    3 1.00
            7.868272             0.068999
            1.881288             0.316424
            0.544249             0.744308
 p    1 1.00
            0.168714             1.000000
 d    1 1.00
            0.800000             1.000000

   16 0
 s    6 1.00
         3047.524900             0.001835
          457.369510             0.014037
          103.948690             0.068843
           29.210155             0.232184
            9.286663             0.467941
            3.163927             0.362312
 s    3 1.00
            7.868272            -0.119332
            1.881288            -0.160854
            0.544249             1.143456
 s    1 1.00
            0.168714             1.000000
 p    3 1.00
            7.868272             0.068999
            1.881288             0.316424
            0.544249             0.744308
 p    1 1.00
            0.168714             1.000000
 d    1 1.00
            0.800000             1.000000

   17 0
 s    6 1.00
         4173.511000             0.001835
          627.457900             0.013995
          142.902100             0.068587
           40.234330             0.232241
           12.820210             0.469070
            4.390437             0.360455
 s    3 1.00
           11.626358            -0.114961
            2.716280            -0.169118
            0.772218             1.145852
 s    1 1.00
            0.212031             1.000000
 p    3 1.00
           11.626358             0.067580
            2.716280             0.323907
            0.772218             0.740895
 p    1 1.00
            0.212031             1.000000
 d    1 1.00
            0.800000             1.000000

   18 0
 s    6 1.00
         4173.511000             0.001835
          627.457900             0.013995
          142.902100             0.068587
           40.234330             0.232241
           12.820210             0.469070
            4.390437             0.360455
 s    3 1.00
           11.626358            -0.114961
            2.716280            -0.169118
            0.772218             1.145852
 s    1 1.00
            0.212031             1.000000
 p    3 1.00
           11.626358             0.067580
            2.716280             0.323907
            0.772218             0.740895
 p    1 1.00
            0.212031             1.000000
 d    1 1.00
            0.800000             1.000000

   19 0
 s    6 1.00
         3047.524900             0.001835
          457.369510             0.014037
          103.948690             0.068843
           29.210155             0.232184
            9.286663             0.467941
            3.163927             0.362312
 s    3 1.00
            7.868272            -0.119332
            1.881288            -0.160854
            0.544249             1.143456
 s    1 1.00
            0.168714             1.000000
 p    3 1.00
            7.868272             0.068999
            1.881288             0.316424
            0.544249             0.744308
 p    1 1.00
            0.168714             1.000000
 d    1 1.00
            0.800000             1.000000

   20 0
 s    6 1.00
         3047.524900             0.001835
          457.369510             0.014037
          103.948690             0.068843
           29.210155             0.232184
            9.286663             0.467941
            3.163927             0.362312
 s    3 1.00
            7.868272            -0.119332
            1.881288            -0.160854
            0.544249             1.143456
 s    1 1.00
            0.168714             1.000000
 p    3 1.00
            7.868272             0.068999
            1.881288             0.316424
            0.544249             0.744308
 p    1 1.00
            0.168714             1.000000
 d    1 1.00
            0.800000             1.000000

   21 0
 s    6 1.00
         3047.524900             0.001835
          457.369510             0.014037
          103.948690             0.068843
           29.210155             0.232184
            9.286663             0.467941
            3.163927             0.362312
 s    3 1.00
            7.868272            -0.119332
            1.881288            -0.160854
            0.544249             1.143456
 s    1 1.00
            0.168714             1.000000
 p    3 1.00
            7.868272             0.068999
            1.881288             0.316424
            0.544249             0.744308
 p    1 1.00
            0.168714             1.000000
 d    1 1.00
            0.800000             1.000000

   22 0
 s    6 1.00
         4173.511000             0.001835
          627.457900             0.013995
          142.902100             0.068587
           40.234330             0.232241
           12.820210             0.469070
            4.390437             0.360455
 s    3 1.00
           11.626358            -0.114961
            2.716280            -0.169118
            0.772218             1.145852
 s    1 1.00
            0.212031             1.000000
 p    3 1.00
           11.626358             0.067580
            2.716280             0.323907
            0.772218             0.740895
 p    1 1.00
            0.212031             1.000000
 d    1 1.00
            0.800000             1.000000

   23 0
 s    6 1.00
         3047.524900             0.001835
          457.369510             0.014037
          103.948690             0.068843
           29.210155             0.232184
            9.286663             0.467941
            3.163927             0.362312
 s    3 1.00
            7.868272            -0.119332
            1.881288            -0.160854
            0.544249             1.143456
 s    1 1.00
            0.168714             1.000000
 p    3 1.00
            7.868272             0.068999
            1.881288             0.316424
            0.544249             0.744308
 p    1 1.00
            0.168714             1.000000
 d    1 1.00
            0.800000             1.000000

   24 0
 s    6 1.00
         3047.524900             0.001835
          457.369510             0.014037
          103.948690             0.068843
           29.210155             0.232184
            9.286663             0.467941
            3.163927             0.362312
 s    3 1.00
            7.868272            -0.119332
            1.881288            -0.160854
            0.544249             1.143456
 s    1 1.00
            0.168714             1.000000
 p    3 1.00
            7.868272             0.068999
            1.881288             0.316424
            0.544249             0.744308
 p    1 1.00
            0.168714             1.000000
 d    1 1.00
            0.800000             1.000000

   25 0
 s    3 1.00
           18.731137             0.033495
            2.825394             0.234727
            0.640122             0.813757
 s    1 1.00
            0.161278             1.000000

   26 0
 s    3 1.00
           18.731137             0.033495
            2.825394             0.234727
            0.640122             0.813757
 s    1 1.00
            0.161278             1.000000

   27 0
 s    3 1.00
           18.731137             0.033495
            2.825394             0.234727
            0.640122             0.813757
 s    1 1.00
            0.161278             1.000000

   28 0
 s    3 1.00
           18.731137             0.033495
            2.825394             0.234727
            0.640122             0.813757
 s    1 1.00
            0.161278             1.000000

   29 0
 s    3 1.00
           18.731137             0.033495
            2.825394             0.234727
            0.640122             0.813757
 s    1 1.00
            0.161278             1.000000

[MO]
 Ene=   -19.3506
 Spin= Alpha
 Occup= 1.0
    1    0.00020
    2    0.00032
    3    0.00013
    4    0.00002
    5    0.00007
    6   -0.00000
    7    0.00010
    8    0.00149
    9   -0.00005
   10   -0.00008
   11   -0.00031
   12   -0.00005
   13   -0.00000
   14    0.00006
   15    0.00000
   16    0.00001
   17    0.00001
   18    0.00001
   19    0.00003
   20    0.00057
   21    0.00001
   22    0.00014
   23   -0.00004
   24   -0.00002
   25   -0.99269
   26   -0.02579
   27   -0.01246
   28   -0.00040
   29   -0.00048
   30   -0.00081
   31    0.00017
   32    0.00069
   33    0.00027
   34    0.00834
   35    0.00818
   36    0.00829
   37   -0.00006
   38   -0.00003
   39    0.00001
   40   -0.00035
   41    0.00095
   42   -0.00041
   43    0.00091
   44    0.00011
   45    0.00002
   46   -0.00002
   47    0.00001
   48    0.00002
   49   -0.00001
   50    0.00002
   51   -0.00015
   52    0.00004
   53   -0.00003
   54   -0.00002
   55   -0.00003
   56    0.00002
   57    0.00000
   58   -0.00000
   59    0.00003
   60   -0.00004
   61    0.00002
   62   -0.00008
   63    0.00017
   64   -0.00001
   65    0.00014
   66    0.00000
   67   -0.00000
   68    0.00000
   69   -0.00002
   70    0.00000
   71   -0.00002
   72    0.00000
   73   -0.00007
   74    0.00001
   75    0.00003
   76   -0.00001
   77    0.00001
   78    0.00000
   79    0.00012
   80   -0.00002
   81    0.00015
   82    0.00000
   83    0.00005
   84   -0.00019
   85    0.00003
   86    0.00005
   87   -0.00001
   88   -0.00012
   89   -0.00020
   90    0.00001
   91    0.00002
   92    0.00004
   93    0.00005
   94   -0.00003
   95    0.00000
   96    0.00001
   97    0.00001
   98    0.00001
   99    0.00002
  100   -0.00008
  101    0.00000
  102    0.00003
  103   -0.00018
  104   -0.00000
  105    0.00001
  106    0.00001
  107    0.00013
  108   -0.00014
  109   -0.00004
  110   -0.00000
  111   -0.00001
  112   -0.00003
  113    0.00000
  114    0.00001
  115    0.00003
  116    0.00000
  117    0.00001
  118   -0.00014
  119   -0.00000
  120    0.00002
  121    0.00000
  122    0.00007
  123   -0.00010
  124    0.00003
  125    0.00001
  126    0.00002
  127    0.00001
  128   -0.00001
  129    0.00000
  130    0.00001
  131    0.00001
  132    0.00002
  133   -0.00030
  134    0.00001
  135    0.00003
  136   -0.00002
  137    0.00043
  138   -0.00025
  139   -0.00010
  140    0.00002
  141    0.00001
  142    0.00002
  143    0.00001
  144    0.00000
  145    0.00002
  146   -0.00001
  147   -0.00005
  148    0.00060
  149   -0.00000
  150    0.00000
  151   -0.00001
  152    0.00019
  153   -0.00003
  154   -0.00004
  155   -0.00002
  156   -0.00003
  157   -0.00003
  158    0.00000
  159   -0.00000
  160    0.00000
  161   -0.00000
  162   -0.00001
  163    0.00005
  164    0.00000
  165   -0.00000
  166    0.00000
  167    0.00000
  168    0.00004
  169   -0.00003
  170   -0.00002
  171   -0.00001
  172   -0.00001
  173   -0.00001
  174    0.00000
  175   -0.00000
  176    0.00001
  177    0.00003
  178   -0.00008
  179   -0.00000
  180   -0.00000
  181    0.00002
  182    0.00002
  183    0.00022
  184   -0.00032
  185    0.00002
  186    0.00000
  187    0.00000
  188    0.00000
  189    0.00000
  190    0.00000
  191   -0.00001
  192   -0.00006
  193    0.00084
  194    0.00001
  195   -0.00001
  196   -0.00000
  197   -0.00007
  198    0.00026
  199    0.00061
  200   -0.00003
  201   -0.00002
  202    0.00002
  203    0.00000
  204   -0.00001
  205    0.00001
  206    0.00004
  207    0.00014
  208   -0.00114
  209   -0.00003
  210    0.00005
  211    0.00000
  212    0.00009
  213   -0.00093
  214    0.00049
  215    0.00007
  216    0.00010
  217    0.00000
  218   -0.00000
  219    0.00000
  220   -0.00004
  221    0.00004
  222    0.00015
  223   -0.00112
  224    0.00000
  225    0.00001
  226    0.00002
  227   -0.00003
  228   -0.00029
  229    0.00002
  230    0.00010
  231    0.00003
  232    0.00005
  233   -0.00000
  234   -0.00000
  235   -0.00000
  236   -0.00000
  237    0.00000
  238   -0.00017
  239    0.00001
  240    0.00001
  241   -0.00003
  242   -0.00002
  243    0.00008
  244    0.00040
  245   -0.00001
  246    0.00002
  247   -0.00002
  248   -0.00000
  249    0.00000
  250    0.00001
  251   -0.00000
  252   -0.00003
  253    0.00063
  254   -0.00000
  255    0.00001
  256    0.00001
  257   -0.00001
  258    0.00012
  259    0.00012
  260   -0.00001
  261    0.00001
  262    0.00001
  263   -0.00000
  264    0.00000
  265   -0.00001
  266   -0.00003
  267   -0.00011
  268   -0.00003
  269   -0.00005
  270   -0.00009
  271    0.00094
  272   -0.00003
  273    0.00006
  274   -0.00000
  275   -0.00002
 Ene=   -19.3478
 Spin= Alpha
 Occup= 1.0
    1   -0.00018
    2   -0.00029
    3   -0.00008
    4   -0.00000
    5    0.00006
    6   -0.00000
    7   -0.00028
    8    0.00141
    9    0.00012
   10    0.00006
   11   -0.00032
   12    0.00004
   13   -0.00000
   14   -0.00004
   15    0.00000
   16    0.00001
   17   -0.00000
   18    0.00001
   19   -0.00000
   20   -0.00064
   21   -0.00004
   22    0.00015
   23    0.00004
   24   -0.00004
   25    0.00018
   26    0.00001
   27   -0.00009
   28   -0.00001
   29    0.00000
   30    0.00000
   31    0.00004
   32   -0.00005
   33   -0.00001
   34   -0.00001
   35    0.00007
   36   -0.00002
   37    0.00004
   38    0.00001
   39    0.00001
   40   -0.00002
   41   -0.00009
   42    0.00004
   43   -0.00014
   44   -0.00012
   45   -0.00004
   46    0.00011
   47   -0.00000
   48    0.00002
   49    0.00001
   50   -0.00004
   51   -0.00014
   52   -0.00005
   53    0.00001
   54    0.00001
   55    0.00001
   56    0.00002
   57   -0.00000
   58    0.00000
   59   -0.00005
   60    0.00008
   61   -0.00001
   62    0.00003
   63    0.99269
   64    0.02578
   65    0.01248
   66    0.00032
   67   -0.00051
   68    0.00085
   69   -0.00012
   70    0.00070
   71   -0.00030
   72   -0.00836
   73   -0.00818
   74   -0.00829
   75   -0.00006
   76    0.00003
   77    0.00001
   78    0.00035
   79   -0.00097
   80    0.00042
   81   -0.00093
   82    0.00005
   83   -0.00002
   84    0.00004
   85   -0.00002
   86    0.00005
   87   -0.00000
   88    0.00007
   89   -0.00019
   90    0.00001
   91   -0.00002
   92   -0.00002
   93   -0.00004
   94   -0.00002
   95   -0.00000
   96    0.00001
   97    0.00001
   98   -0.00001
   99    0.00002
  100    0.00001
  101    0.00000
  102   -0.00003
  103    0.00015
  104    0.00002
  105    0.00000
  106   -0.00001
  107   -0.00018
  108   -0.00003
  109    0.00002
  110    0.00002
  111    0.00001
  112    0.00003
  113   -0.00000
  114   -0.00002
  115    0.00003
  116   -0.00000
  117   -0.00002
  118    0.00032
  119   -0.00002
  120    0.00002
  121   -0.00000
  122    0.00026
  123   -0.00011
  124   -0.00004
  125    0.00000
  126   -0.00000
  127    0.00001
  128   -0.00001
  129    0.00001
  130    0.00001
  131   -0.00000
  132    0.00001
  133   -0.00035
  134   -0.00002
  135    0.00004
  136    0.00000
  137    0.00012
  138   -0.00012
  139    0.00008
  140   -0.00003
  141   -0.00001
  142   -0.00001
  143    0.00002
  144    0.00002
  145    0.00000
  146   -0.00000
  147   -0.00001
  148    0.00026
  149    0.00001
  150   -0.00001
  151   -0.00001
  152    0.00009
  153    0.00001
  154   -0.00004
  155    0.00000
  156   -0.00001
  157   -0.00001
  158    0.00000
  159   -0.00001
  160    0.00000
  161    0.00000
  162    0.00002
  163   -0.00033
  164    0.00001
  165    0.00001
  166    0.00002
  167    0.00009
  168   -0.00003
  169   -0.00000
  170    0.00000
  171   -0.00000
  172    0.00000
  173   -0.00000
  174    0.00000
  175    0.00001
  176   -0.00001
  177   -0.00004
  178    0.00010
  179    0.00000
  180   -0.00000
  181   -0.00002
  182   -0.00003
  183    0.00026
  184    0.00036
  185   -0.00002
  186   -0.00000
  187   -0.00000
  188    0.00000
  189   -0.00000
  190    0.00001
  191    0.00000
  192    0.00003
  193   -0.00066
  194    0.00000
  195    0.00001
  196   -0.00001
  197   -0.00001
  198    0.00014
  199   -0.00010
  200    0.00001
  201   -0.00001
  202   -0.00001
  203    0.00000
  204   -0.00000
  205   -0.00001
  206   -0.00000
  207   -0.00001
  208    0.00022
  209   -0.00001
  210    0.00000
  211    0.00003
  212    0.00002
  213    0.00007
  214   -0.00036
  215    0.00000
  216   -0.00002
  217    0.00002
  218    0.00000
  219   -0.00000
  220    0.00001
  221   -0.00004
  222   -0.00016
  223    0.00125
  224   -0.00001
  225    0.00001
  226   -0.00002
  227    0.00006
  228   -0.00036
  229   -0.00001
  230   -0.00011
  231   -0.00003
  232   -0.00006
  233   -0.00001
  234    0.00000
  235   -0.00000
  236   -0.00004
  237   -0.00015
  238    0.00126
  239    0.00001
  240    0.00005
  241    0.00000
  242    0.00000
  243   -0.00106
  244   -0.00061
  245   -0.00007
  246   -0.00010
  247    0.00000
  248   -0.00000
  249   -0.00000
  250   -0.00004
  251    0.00002
  252    0.00007
  253   -0.00098
  254   -0.00000
  255   -0.00001
  256    0.00000
  257    0.00004
  258    0.00029
  259   -0.00071
  260    0.00004
  261    0.00002
  262   -0.00002
  263    0.00000
  264    0.00001
  265    0.00001
  266    0.00003
  267    0.00013
  268    0.00000
  269    0.00002
  270    0.00003
  271   -0.00007
  272    0.00010
  273   -0.00107
  274    0.00004
  275    0.00006
 Ene=   -19.3377
 Spin= Alpha
 Occup= 1.0
    1    0.00022
    2    0.00038
    3    0.00021
    4   -0.00007
    5    0.00001
    6    0.00001
    7   -0.00184
    8   -0.00002
    9    0.00008
   10    0.00038
   11   -0.00002
   12   -0.00002
   13    0.00010
   14    0.00002
   15    0.00001
   16   -0.00000
   17   -0.00000
   18    0.00001
   19    0.00059
   20   -0.00002
   21    0.00013
   22   -0.00002
   23   -0.00013
   24   -0.00002
   25    0.00002
   26    0.00003
   27   -0.00011
   28   -0.00004
   29   -0.00001
   30    0.00000
   31    0.00018
   32    0.00001
   33   -0.00002
   34    0.00003
   35    0.00002
   36    0.00003
   37   -0.00003
   38    0.00002
   39   -0.00001
   40   -0.00007
   41    0.00017
   42    0.00007
   43   -0.00011
   44    0.00041
   45   -0.00009
   46    0.00056
   47    0.00000
   48    0.00000
   49    0.00002
   50   -0.00001
   51   -0.00000
   52   -0.00008
   53   -0.00013
   54   -0.00006
   55   -0.00006
   56   -0.00000
   57   -0.00003
   58    0.00000
   59   -0.00006
   60    0.00004
   61    0.00002
   62    0.00002
   63    0.00007
   64    0.00004
   65   -0.00013
   66   -0.00005
   67    0.00002
   68    0.00000
   69    0.00021
   70   -0.00003
   71   -0.00003
   72    0.00004
   73    0.00003
   74    0.00004
   75    0.00002
   76    0.00002
   77    0.00001
   78   -0.00007
   79    0.00012
   80    0.00009
   81   -0.00013
   82   -0.99265
   83   -0.02569
   84   -0.01307
   85    0.00088
   86   -0.00022
   87   -0.00010
   88   -0.00082
   89    0.00004
   90   -0.00010
   91    0.00828
   92    0.00839
   93    0.00845
   94   -0.00000
   95    0.00005
   96   -0.00000
   97   -0.00039
   98    0.00127
   99   -0.00042
  100    0.00085
  101    0.00003
  102    0.00015
  103   -0.00121
  104   -0.00001
  105   -0.00001
  106    0.00001
  107   -0.00000
  108    0.00006
  109   -0.00005
  110    0.00002
  111    0.00006
  112    0.00004
  113    0.00001
  114   -0.00004
  115    0.00000
  116   -0.00002
  117   -0.00007
  118    0.00036
  119   -0.00002
  120   -0.00001
  121    0.00001
  122   -0.00057
  123    0.00015
  124   -0.00037
  125    0.00001
  126   -0.00005
  127   -0.00002
  128   -0.00001
  129    0.00001
  130   -0.00000
  131   -0.00000
  132    0.00003
  133    0.00024
  134    0.00005
  135   -0.00000
  136    0.00004
  137    0.00001
  138   -0.00008
  139   -0.00021
  140   -0.00001
  141   -0.00003
  142   -0.00003
  143   -0.00001
  144    0.00001
  145    0.00000
  146    0.00002
  147    0.00008
  148   -0.00033
  149   -0.00001
  150   -0.00000
  151   -0.00002
  152    0.00005
  153    0.00006
  154    0.00027
  155    0.00006
  156    0.00004
  157   -0.00002
  158   -0.00000
  159   -0.00000
  160   -0.00002
  161   -0.00001
  162   -0.00004
  163    0.00045
  164    0.00001
  165   -0.00000
  166    0.00000
  167   -0.00016
  168    0.00003
  169    0.00002
  170   -0.00001
  171   -0.00002
  172   -0.00001
  173   -0.00000
  174   -0.00001
  175    0.00000
  176    0.00000
  177    0.00001
  178   -0.00021
  179    0.00000
  180    0.00000
  181   -0.00000
  182    0.00004
  183   -0.00000
  184   -0.00009
  185    0.00000
  186   -0.00000
  187    0.00000
  188    0.00000
  189    0.00000
  190    0.00000
  191   -0.00000
  192   -0.00001
  193    0.00017
  194    0.00002
  195    0.00000
  196    0.00000
  197   -0.00009
  198   -0.00013
  199    0.00004
  200   -0.00000
  201    0.00000
  202   -0.00000
  203    0.00001
  204   -0.00001
  205   -0.00000
  206    0.00000
  207    0.00001
  208   -0.00019
  209   -0.00005
  210    0.00001
  211   -0.00000
  212    0.00009
  213    0.00022
  214    0.00007
  215    0.00001
  216   -0.00002
  217    0.00001
  218    0.00002
  219   -0.00000
  220    0.00000
  221    0.00000
  222    0.00000
  223    0.00018
  224   -0.00006
  225   -0.00000
  226    0.00004
  227    0.00025
  228    0.00001
  229   -0.00036
  230    0.00001
  231    0.00004
  232    0.00001
  233   -0.00000
  234    0.00004
  235   -0.00000
  236    0.00000
  237    0.00001
  238   -0.00022
  239   -0.00005
  240   -0.00001
  241   -0.00001
  242    0.00010
  243   -0.00022
  244    0.00013
  245    0.00001
  246   -0.00002
  247    0.00001
  248   -0.00002
  249   -0.00000
  250   -0.00000
  251   -0.00000
  252   -0.00001
  253    0.00022
  254    0.00002
  255   -0.00000
  256    0.00000
  257   -0.00009
  258    0.00013
  259    0.00006
  260   -0.00000
  261    0.00000
  262    0.00000
  263   -0.00001
  264   -0.00001
  265    0.00000
  266   -0.00000
  267   -0.00002
  268    0.00001
  269    0.00003
  270    0.00001
  271   -0.00014
  272    0.00001
  273   -0.00015
  274    0.00001
  275    0.00003
 Ene=   -19.3343
 Spin= Alpha
 Occup= 1.0
    1   -0.00023
    2   -0.00012
    3   -0.00083
    4    0.00000
    5    0.00000
    6   -0.00001
    7   -0.00160
    8    0.00001