[Molden Format]
[Title]
Written by TeraChem
[Atoms] Angs
Mn   1   15     -0.05759    0.61165   12.49167
N   2   7     -0.00824    0.24123   14.84524
H   3   1     -0.85955    0.58798   15.28114
H   4   1      0.02315   -0.76912   14.96372
H   5   1      0.79485    0.64811   15.31871
C   6   6      0.07559    3.34904   10.99953
C   7   6     -0.46844    2.70691   12.28538
H   8   1     -0.32083    2.84575   10.10357
H   9   1      1.17007    3.26949   10.93970
H   10   1     -0.16878    4.42259   10.88369
H   11   1     -1.55894    2.86274   12.32852
H   12   1     -0.04967    3.24141   13.15780
C   13   6      2.68204    2.01561   13.32005
C   14   6      2.06547    0.89872   12.46924
H   15   1      2.46306    1.88435   14.39399
H   16   1      2.27617    2.99786   13.04509
H   17   1      3.78365    2.09343   13.24778
H   18   1      2.51699   -0.06854   12.75207
H   19   1      2.33703    1.05570   11.41113
C   20   6      0.46370   -2.43584   12.77902
C   21   6      0.25525   -1.36365   11.70099
H   22   1     -0.41217   -2.50797   13.44488
H   23   1      1.33337   -2.20065   13.41360
H   24   1      0.63496   -3.45907   12.39390
H   25   1     -0.60401   -1.65351   11.07442
H   26   1      1.13939   -1.34576   11.04149
C   27   6     -2.91045    0.30560   11.27510
C   28   6     -2.14974    0.19226   12.60044
H   29   1     -2.50911   -0.39707   10.53012
H   30   1     -2.80680    1.31364   10.84734
H   31   1     -3.99616    0.10261   11.34401
H   32   1     -2.28196   -0.82628   13.00974
H   33   1     -2.59465    0.89070   13.33388
C   34   6     -0.12883   -3.03058  -60.14649
C   35   6     -1.04822   -2.11993  -59.58181
C   36   6     -0.31383   -4.41954  -59.97337
C   37   6      0.97556   -2.55231  -60.88469
N   38   7      1.89244   -2.15551  -61.49784
N   39   7     -0.46732   -5.57277  -59.82995
N   40   7     -1.81141   -1.36374  -59.11304
[GTO]
    1 0
 s    3 1.00
            5.914000            -0.376451
            1.605000             0.772479
            0.626000             0.476935
 s    4 1.00
            5.914000             0.211997
            1.605000            -0.519947
            0.626000            -0.585768
            0.111500             1.100396
 s    1 1.00
            0.038000             1.000000
 p    3 1.00
           18.200000            -0.044790
            2.141000             0.626031
            0.700900             0.469633
 p    1 1.00
            0.069000             1.000000
 p    1 1.00
            0.021000             1.000000
 d    4 1.00
           32.270000             0.034158
            8.875000             0.176110
            2.890000             0.439430
            0.876100             0.594327
 d    1 1.00
            0.212000             1.000000

    2 0
 s    6 1.00
         4173.511000             0.001835
          627.457900             0.013995
          142.902100             0.068587
           40.234330             0.232241
           12.820210             0.469070
            4.390437             0.360455
 s    3 1.00
           11.626358            -0.114961
            2.716280            -0.169118
            0.772218             1.145852
 s    1 1.00
            0.212031             1.000000
 p    3 1.00
           11.626358             0.067580
            2.716280             0.323907
            0.772218             0.740895
 p    1 1.00
            0.212031             1.000000
 d    1 1.00
            0.800000             1.000000

    3 0
 s    3 1.00
           18.731137             0.033495
            2.825394             0.234727
            0.640122             0.813757
 s    1 1.00
            0.161278             1.000000

    4 0
 s    3 1.00
           18.731137             0.033495
            2.825394             0.234727
            0.640122             0.813757
 s    1 1.00
            0.161278             1.000000

    5 0
 s    3 1.00
           18.731137             0.033495
            2.825394             0.234727
            0.640122             0.813757
 s    1 1.00
            0.161278             1.000000

    6 0
 s    6 1.00
         3047.524900             0.001835
          457.369510             0.014037
          103.948690             0.068843
           29.210155             0.232184
            9.286663             0.467941
            3.163927             0.362312
 s    3 1.00
            7.868272            -0.119332
            1.881288            -0.160854
            0.544249             1.143456
 s    1 1.00
            0.168714             1.000000
 p    3 1.00
            7.868272             0.068999
            1.881288             0.316424
            0.544249             0.744308
 p    1 1.00
            0.168714             1.000000
 d    1 1.00
            0.800000             1.000000

    7 0
 s    6 1.00
         3047.524900             0.001835
          457.369510             0.014037
          103.948690             0.068843
           29.210155             0.232184
            9.286663             0.467941
            3.163927             0.362312
 s    3 1.00
            7.868272            -0.119332
            1.881288            -0.160854
            0.544249             1.143456
 s    1 1.00
            0.168714             1.000000
 p    3 1.00
            7.868272             0.068999
            1.881288             0.316424
            0.544249             0.744308
 p    1 1.00
            0.168714             1.000000
 d    1 1.00
            0.800000             1.000000

    8 0
 s    3 1.00
           18.731137             0.033495
            2.825394             0.234727
            0.640122             0.813757
 s    1 1.00
            0.161278             1.000000

    9 0
 s    3 1.00
           18.731137             0.033495
            2.825394             0.234727
            0.640122             0.813757
 s    1 1.00
            0.161278             1.000000

   10 0
 s    3 1.00
           18.731137             0.033495
            2.825394             0.234727
            0.640122             0.813757
 s    1 1.00
            0.161278             1.000000

   11 0
 s    3 1.00
           18.731137             0.033495
            2.825394             0.234727
            0.640122             0.813757
 s    1 1.00
            0.161278             1.000000

   12 0
 s    3 1.00
           18.731137             0.033495
            2.825394             0.234727
            0.640122             0.813757
 s    1 1.00
            0.161278             1.000000

   13 0
 s    6 1.00
         3047.524900             0.001835
          457.369510             0.014037
          103.948690             0.068843
           29.210155             0.232184
            9.286663             0.467941
            3.163927             0.362312
 s    3 1.00
            7.868272            -0.119332
            1.881288            -0.160854
            0.544249             1.143456
 s    1 1.00
            0.168714             1.000000
 p    3 1.00
            7.868272             0.068999
            1.881288             0.316424
            0.544249             0.744308
 p    1 1.00
            0.168714             1.000000
 d    1 1.00
            0.800000             1.000000

   14 0
 s    6 1.00
         3047.524900             0.001835
          457.369510             0.014037
          103.948690             0.068843
           29.210155             0.232184
            9.286663             0.467941
            3.163927             0.362312
 s    3 1.00
            7.868272            -0.119332
            1.881288            -0.160854
            0.544249             1.143456
 s    1 1.00
            0.168714             1.000000
 p    3 1.00
            7.868272             0.068999
            1.881288             0.316424
            0.544249             0.744308
 p    1 1.00
            0.168714             1.000000
 d    1 1.00
            0.800000             1.000000

   15 0
 s    3 1.00
           18.731137             0.033495
            2.825394             0.234727
            0.640122             0.813757
 s    1 1.00
            0.161278             1.000000

   16 0
 s    3 1.00
           18.731137             0.033495
            2.825394             0.234727
            0.640122             0.813757
 s    1 1.00
            0.161278             1.000000

   17 0
 s    3 1.00
           18.731137             0.033495
            2.825394             0.234727
            0.640122             0.813757
 s    1 1.00
            0.161278             1.000000

   18 0
 s    3 1.00
           18.731137             0.033495
            2.825394             0.234727
            0.640122             0.813757
 s    1 1.00
            0.161278             1.000000

   19 0
 s    3 1.00
           18.731137             0.033495
            2.825394             0.234727
            0.640122             0.813757
 s    1 1.00
            0.161278             1.000000

   20 0
 s    6 1.00
         3047.524900             0.001835
          457.369510             0.014037
          103.948690             0.068843
           29.210155             0.232184
            9.286663             0.467941
            3.163927             0.362312
 s    3 1.00
            7.868272            -0.119332
            1.881288            -0.160854
            0.544249             1.143456
 s    1 1.00
            0.168714             1.000000
 p    3 1.00
            7.868272             0.068999
            1.881288             0.316424
            0.544249             0.744308
 p    1 1.00
            0.168714             1.000000
 d    1 1.00
            0.800000             1.000000

   21 0
 s    6 1.00
         3047.524900             0.001835
          457.369510             0.014037
          103.948690             0.068843
           29.210155             0.232184
            9.286663             0.467941
            3.163927             0.362312
 s    3 1.00
            7.868272            -0.119332
            1.881288            -0.160854
            0.544249             1.143456
 s    1 1.00
            0.168714             1.000000
 p    3 1.00
            7.868272             0.068999
            1.881288             0.316424
            0.544249             0.744308
 p    1 1.00
            0.168714             1.000000
 d    1 1.00
            0.800000             1.000000

   22 0
 s    3 1.00
           18.731137             0.033495
            2.825394             0.234727
            0.640122             0.813757
 s    1 1.00
            0.161278             1.000000

   23 0
 s    3 1.00
           18.731137             0.033495
            2.825394             0.234727
            0.640122             0.813757
 s    1 1.00
            0.161278             1.000000

   24 0
 s    3 1.00
           18.731137             0.033495
            2.825394             0.234727
            0.640122             0.813757
 s    1 1.00
            0.161278             1.000000

   25 0
 s    3 1.00
           18.731137             0.033495
            2.825394             0.234727
            0.640122             0.813757
 s    1 1.00
            0.161278             1.000000

   26 0
 s    3 1.00
           18.731137             0.033495
            2.825394             0.234727
            0.640122             0.813757
 s    1 1.00
            0.161278             1.000000

   27 0
 s    6 1.00
         3047.524900             0.001835
          457.369510             0.014037
          103.948690             0.068843
           29.210155             0.232184
            9.286663             0.467941
            3.163927             0.362312
 s    3 1.00
            7.868272            -0.119332
            1.881288            -0.160854
            0.544249             1.143456
 s    1 1.00
            0.168714             1.000000
 p    3 1.00
            7.868272             0.068999
            1.881288             0.316424
            0.544249             0.744308
 p    1 1.00
            0.168714             1.000000
 d    1 1.00
            0.800000             1.000000

   28 0
 s    6 1.00
         3047.524900             0.001835
          457.369510             0.014037
          103.948690             0.068843
           29.210155             0.232184
            9.286663             0.467941
            3.163927             0.362312
 s    3 1.00
            7.868272            -0.119332
            1.881288            -0.160854
            0.544249             1.143456
 s    1 1.00
            0.168714             1.000000
 p    3 1.00
            7.868272             0.068999
            1.881288             0.316424
            0.544249             0.744308
 p    1 1.00
            0.168714             1.000000
 d    1 1.00
            0.800000             1.000000

   29 0
 s    3 1.00
           18.731137             0.033495
            2.825394             0.234727
            0.640122             0.813757
 s    1 1.00
            0.161278             1.000000

   30 0
 s    3 1.00
           18.731137             0.033495
            2.825394             0.234727
            0.640122             0.813757
 s    1 1.00
            0.161278             1.000000

   31 0
 s    3 1.00
           18.731137             0.033495
            2.825394             0.234727
            0.640122             0.813757
 s    1 1.00
            0.161278             1.000000

   32 0
 s    3 1.00
           18.731137             0.033495
            2.825394             0.234727
            0.640122             0.813757
 s    1 1.00
            0.161278             1.000000

   33 0
 s    3 1.00
           18.731137             0.033495
            2.825394             0.234727
            0.640122             0.813757
 s    1 1.00
            0.161278             1.000000

   34 0
 s    6 1.00
         3047.524900             0.001835
          457.369510             0.014037
          103.948690             0.068843
           29.210155             0.232184
            9.286663             0.467941
            3.163927             0.362312
 s    3 1.00
            7.868272            -0.119332
            1.881288            -0.160854
            0.544249             1.143456
 s    1 1.00
            0.168714             1.000000
 p    3 1.00
            7.868272             0.068999
            1.881288             0.316424
            0.544249             0.744308
 p    1 1.00
            0.168714             1.000000
 d    1 1.00
            0.800000             1.000000

   35 0
 s    6 1.00
         3047.524900             0.001835
          457.369510             0.014037
          103.948690             0.068843
           29.210155             0.232184
            9.286663             0.467941
            3.163927             0.362312
 s    3 1.00
            7.868272            -0.119332
            1.881288            -0.160854
            0.544249             1.143456
 s    1 1.00
            0.168714             1.000000
 p    3 1.00
            7.868272             0.068999
            1.881288             0.316424
            0.544249             0.744308
 p    1 1.00
            0.168714             1.000000
 d    1 1.00
            0.800000             1.000000

   36 0
 s    6 1.00
         3047.524900             0.001835
          457.369510             0.014037
          103.948690             0.068843
           29.210155             0.232184
            9.286663             0.467941
            3.163927             0.362312
 s    3 1.00
            7.868272            -0.119332
            1.881288            -0.160854
            0.544249             1.143456
 s    1 1.00
            0.168714             1.000000
 p    3 1.00
            7.868272             0.068999
            1.881288             0.316424
            0.544249             0.744308
 p    1 1.00
            0.168714             1.000000
 d    1 1.00
            0.800000             1.000000

   37 0
 s    6 1.00
         3047.524900             0.001835
          457.369510             0.014037
          103.948690             0.068843
           29.210155             0.232184
            9.286663             0.467941
            3.163927             0.362312
 s    3 1.00
            7.868272            -0.119332
            1.881288            -0.160854
            0.544249             1.143456
 s    1 1.00
            0.168714             1.000000
 p    3 1.00
            7.868272             0.068999
            1.881288             0.316424
            0.544249             0.744308
 p    1 1.00
            0.168714             1.000000
 d    1 1.00
            0.800000             1.000000

   38 0
 s    6 1.00
         4173.511000             0.001835
          627.457900             0.013995
          142.902100             0.068587
           40.234330             0.232241
           12.820210             0.469070
            4.390437             0.360455
 s    3 1.00
           11.626358            -0.114961
            2.716280            -0.169118
            0.772218             1.145852
 s    1 1.00
            0.212031             1.000000
 p    3 1.00
           11.626358             0.067580
            2.716280             0.323907
            0.772218             0.740895
 p    1 1.00
            0.212031             1.000000
 d    1 1.00
            0.800000             1.000000

   39 0
 s    6 1.00
         4173.511000             0.001835
          627.457900             0.013995
          142.902100             0.068587
           40.234330             0.232241
           12.820210             0.469070
            4.390437             0.360455
 s    3 1.00
           11.626358            -0.114961
            2.716280            -0.169118
            0.772218             1.145852
 s    1 1.00
            0.212031             1.000000
 p    3 1.00
           11.626358             0.067580
            2.716280             0.323907
            0.772218             0.740895
 p    1 1.00
            0.212031             1.000000
 d    1 1.00
            0.800000             1.000000

   40 0
 s    6 1.00
         4173.511000             0.001835
          627.457900             0.013995
          142.902100             0.068587
           40.234330             0.232241
           12.820210             0.469070
            4.390437             0.360455
 s    3 1.00
           11.626358            -0.114961
            2.716280            -0.169118
            0.772218             1.145852
 s    1 1.00
            0.212031             1.000000
 p    3 1.00
           11.626358             0.067580
            2.716280             0.323907
            0.772218             0.740895
 p    1 1.00
            0.212031             1.000000
 d    1 1.00
            0.800000             1.000000

[MO]
 Ene=   -14.2462
 Spin= Alpha
 Occup= 1.0
    1   -0.00020
    2   -0.00030
    3   -0.00093
    4    0.00000
    5    0.00000
    6   -0.00003
    7   -0.00013
    8    0.00016
    9   -0.00083
   10    0.00002
   11    0.00000
   12    0.00010
   13    0.00004
   14    0.00005
   15   -0.00001
   16   -0.00000
   17   -0.00000
   18    0.00001
   19    0.00021
   20    0.00011
   21   -0.00005
   22    0.00003
   23   -0.00002
   24    0.00001
   25    0.99262
   26    0.03462
   27    0.00456
   28   -0.00001
   29   -0.00026
   30    0.00114
   31    0.00001
   32    0.00016
   33   -0.00086
   34   -0.00840
   35   -0.00840
   36   -0.00836
   37   -0.00000
   38   -0.00000
   39   -0.00001
   40    0.00022
   41   -0.00013
   42    0.00022
   43   -0.00016
   44    0.00023
   45   -0.00017
   46    0.00000
   47    0.00001
   48   -0.00003
   49    0.00000
   50   -0.00002
   51    0.00001
   52   -0.00008
   53    0.00008
   54    0.00000
   55    0.00001
   56    0.00001
   57    0.00001
   58   -0.00000
   59   -0.00000
   60    0.00000
   61   -0.00000
   62   -0.00002
   63    0.00000
   64   -0.00001
   65    0.00001
   66   -0.00002
   67    0.00007
   68   -0.00011
   69    0.00013
   70   -0.00001
   71   -0.00000
   72    0.00000
   73   -0.00000
   74    0.00000
   75   -0.00001
   76    0.00000
   77    0.00002
   78    0.00000
   79    0.00009
   80   -0.00002
   81   -0.00001
   82   -0.00001
   83    0.00012
   84   -0.00004
   85    0.00014
   86   -0.00001
   87   -0.00003
   88    0.00017
   89   -0.00000
   90   -0.00001
   91   -0.00000
   92   -0.00008
   93   -0.00003
   94   -0.00002
   95   -0.00000
   96   -0.00000
   97   -0.00001
   98    0.00000
   99   -0.00000
  100   -0.00000
  101    0.00001
  102    0.00000
  103   -0.00012
  104   -0.00001
  105   -0.00001
  106    0.00002
  107   -0.00004
  108    0.00000
  109    0.00000
  110    0.00002
  111    0.00002
  112    0.00002
  113    0.00001
  114   -0.00002
  115   -0.00001
  116    0.00000
  117    0.00004
  118   -0.00002
  119    0.00002
  120   -0.00000
  121    0.00003
  122   -0.00001
  123    0.00021
  124   -0.00000
  125    0.00006
  126    0.00001
  127    0.00002
  128   -0.00027
  129    0.00000
  130    0.00001
  131    0.00002
  132   -0.00000
  133   -0.00005
  134   -0.00002
  135    0.00000
  136    0.00002
  137    0.00002
  138   -0.00000
  139   -0.00000
  140    0.00002
  141   -0.00001
  142   -0.00005
  143    0.00025
  144   -0.00000
  145    0.00000
  146   -0.00001
  147    0.00003
  148   -0.00001
  149    0.00022
  150   -0.00003
  151   -0.00001
  152    0.00000
  153   -0.00000
  154   -0.00000
  155    0.00001
  156    0.00002
  157    0.00013
  158    0.00002
  159    0.00015
  160    0.00000
  161    0.00003
  162   -0.00001
  163    0.00010
  164   -0.00002
  165    0.00009
  166    0.00001
  167    0.00004
  168   -0.00027
  169    0.00002
  170    0.00000
  171    0.00000
  172   -0.00013
  173   -0.00001
  174   -0.00006
  175    0.00002
  176    0.00002
  177    0.00001
  178    0.00000
  179   -0.00001
  180    0.00000
  181    0.00001
  182    0.00001
  183   -0.00011
  184    0.00002
  185    0.00000
  186    0.00003
  187   -0.00003
  188    0.00001
  189   -0.00020
  190    0.00003
  191    0.00002
  192    0.00005
  193   -0.00000
  194    0.00002
  195   -0.00000
  196    0.00001
  197    0.00006
  198    0.00001
  199    0.00005
  200   -0.00001
  201   -0.00001
  202    0.00001
  203    0.00022
  204    0.00001
  205    0.00024
  206   -0.00000
  207   -0.00000
  208   -0.00000
  209   -0.00000
  210    0.00000
  211    0.00000
  212    0.00000
  213    0.00000
  214   -0.00000
  215    0.00000
  216    0.00000
  217   -0.00000
  218   -0.00000
  219   -0.00000
  220    0.00000
  221   -0.00000
  222    0.00000
  223   -0.00000
  224    0.00000
  225   -0.00000
  226   -0.00000
  227    0.00000
  228   -0.00000
  229   -0.00000
  230   -0.00000
  231   -0.00000
  232   -0.00000
  233    0.00000
  234    0.00000
  235   -0.00000
  236   -0.00000
  237    0.00000
  238   -0.00000
  239   -0.00000
  240   -0.00000
  241    0.00000
  242    0.00000
  243    0.00000
  244   -0.00000
  245   -0.00000
  246   -0.00000
  247   -0.00000
  248   -0.00000
  249   -0.00000
  250    0.00000
  251    0.00000
  252    0.00000
  253   -0.00000
  254   -0.00000
  255   -0.00000
  256    0.00000
  257    0.00000
  258    0.00000
  259   -0.00000
  260    0.00000
  261    0.00000
  262    0.00000
  263   -0.00000
  264    0.00000
  265    0.00000
  266    0.00000
  267   -0.00000
  268    0.00000
  269    0.00000
  270   -0.00000
  271    0.00000
  272   -0.00000
  273   -0.00000
  274    0.00000
  275   -0.00000
  276   -0.00000
  277   -0.00000
  278    0.00000
  279   -0.00000
  280   -0.00000
  281    0.00000
  282   -0.00000
  283    0.00000
  284   -0.00000
  285    0.00000
  286   -0.00000
  287    0.00000
  288    0.00000
  289   -0.00000
  290   -0.00000
  291   -0.00000
  292   -0.00000
  293    0.00000
  294    0.00000
  295    0.00000
  296   -0.00000
  297   -0.00000
  298    0.00000
  299    0.00000
  300   -0.00000
  301   -0.00000
  302    0.00000
  303   -0.00000
  304   -0.00000
  305   -0.00000
  306   -0.00000
  307   -0.00000
  308   -0.00000
  309   -0.00000
  310    0.00000
 Ene=   -14.2049
 Spin= Alpha
 Occup= 1.0
    1    0.00000
    2    0.00000
    3   -0.00000
    4    0.00000
    5    0.00000
    6    0.00000
    7   -0.00000
    8    0.00000
    9   -0.00000
   10    0.00000
   11    0.00000
   12    0.00000
   13    0.00000
   14    0.00000
   15    0.00000
   16    0.00000
   17    0.00000
   18   -0.00000
   19   -0.00000
   20    0.00000
   21   -0.00000
   22   -0.00000
   23   -0.00000
   24   -0.00000
   25    0.00000
   26   -0.00000
   27    0.00000
   28   -0.00000
   29   -0.00000
   30    0.00000
   31   -0.00000
   32    0.00000
   33   -0.00000
   34    0.00000
   35   -0.00000
   36    0.00000
   37   -0.00000
   38    0.00000
   39    0.00000
   40   -0.00000
   41   -0.00000
   42    0.00000
   43    0.00000
   44   -0.00000
   45    0.00000
   46    0.00000
   47   -0.00000
   48   -0.00000
   49    0.00000
   50    0.00000
   51    0.00000
   52   -0.00000
   53   -0.00000
   54   -0.00000
   55    0.00000
   56    0.00000
   57   -0.00000
   58   -0.00000
   59   -0.00000
   60   -0.00000
   61    0.00000
   62    0.00000
   63   -0.00000
   64    0.00000
   65    0.00000
   66   -0.00000
   67    0.00000
   68    0.00000
   69    0.00000
   70   -0.00000
   71   -0.00000
   72    0.00000
   73    0.00000
   74    0.00000
   75    0.00000
   76    0.00000
   77   -0.00000
   78   -0.00000
   79    0.00000
   80    0.00000
   81    0.00000
   82    0.00000
   83   -0.00000
   84   -0.00000
   85    0.00000
   86   -0.00000
   87   -0.00000
   88   -0.00000
   89   -0.00000
   90    0.00000
   91   -0.00000
   92    0.00000
   93    0.00000
   94    0.00000
   95   -0.00000
   96    0.00000
   97    0.00000
   98   -0.00000
   99   -0.00000
  100   -0.00000
  101    0.00000
  102   -0.00000
  103    0.00000
  104   -0.00000
  105    0.00000
  106   -0.00000
  107   -0.00000
  108    0.00000
  109    0.00000
  110    0.00000
  111    0.00000
  112    0.00000
  113    0.00000
  114   -0.00000
  115    0.00000
  116    0.00000
  117    0.00000
  118    0.00000
  119   -0.00000
  120   -0.00000
  121    0.00000
  122    0.00000
  123    0.00000
  124   -0.00000
  125    0.00000
  126    0.00000
  127   -0.00000
  128   -0.00000
  129    0.00000
  130   -0.00000
  131    0.00000
  132   -0.00000
  133    0.00000
  134    0.00000
  135    0.00000
  136    0.00000
  137    0.00000
  138   -0.00000
  139    0.00000
  140    0.00000
  141   -0.00000
  142   -0.00000
  143   -0.00000
  144    0.00000
  145   -0.00000
  146   -0.00000
  147    0.00000
  148   -0.00000
  149    0.00000
  150    0.00000
  151    0.00000
  152    0.00000
  153   -0.00000
  154   -0.00000
  155   -0.00000
  156    0.00000
  157   -0.00000
  158   -0.00000
  159    0.00000
  160   -0.00000
  161    0.00000
  162    0.00000
  163    0.00000
  164   -0.00000
  165    0.00000
  166    0.00000
  167    0.00000
  168    0.00000
  169   -0.00000
  170   -0.00000
  171    0.00000
  172   -0.00000
  173   -0.00000
  174   -0.00000
  175   -0.00000
  176   -0.00000
  177   -0.00000
  178   -0.00000
  179   -0.00000
  180    0.00000
  181    0.00000
  182   -0.00000
  183    0.00000
  184   -0.00000
  185    0.00000
  186   -0.00000
  187    0.00000
  188    0.00000
  189   -0.00000
  190    0.00000
  191   -0.00000
  192    0.00000
  193    0.00000
  194    0.00000
  195    0.00000
  196    0.00000
  197   -0.00000
  198    0.00000
  199   -0.00000
  200    0.00000
  201   -0.00000
  202    0.00000
  203    0.00000
  204    0.00000
  205    0.00000
  206   -0.00003
  207    0.00010
  208    0.00070
  209   -0.00022
  210   -0.00009
  211    0.00015
  212    0.00035
  213    0.00015
  214   -0.00023
  215   -0.00036
  216   -0.00011
  217   -0.00019
  218   -0.00015
  219    0.00024
  220    0.00010
  221   -0.00001
  222   -0.00005
  223   -0.00008
  224   -0.00001
  225   -0.00000
  226    0.00001
  227    0.00019
  228   -0.00021
  229   -0.00011
  230   -0.00000
  231    0.00005
  232   -0.00001
  233   -0.00002
  234   -0.00001
  235    0.00001
  236   -0.00001
  237   -0.00005
  238   -0.00006
  239   -0.00001
  240   -0.00001
  241    0.00001
  242    0.00002
  243    0.00028
  244   -0.00003
  245   -0.00000
  246    0.00007
  247   -0.00001
  248   -0.00002
  249   -0.00001
  250    0.00001
  251   -0.00004
  252   -0.00025
  253    0.00172
  254    0.00045
  255    0.00019
  256   -0.00030
  257    0.00167
  258    0.00072
  259   -0.00111
  260    0.00102
  261    0.00017
  262    0.00044
  263    0.00052
  264   -0.00081
  265   -0.00035
  266   -0.99268
  267   -0.03453
  268   -0.00608
  269    0.00166
  270    0.00072
  271   -0.00111
  272    0.00079
  273    0.00034
  274   -0.00053
  275    0.00754
  276    0.00818
  277    0.00797
  278   -0.00039
  279    0.00060
  280    0.00026
  281   -0.01355
  282   -0.00051
  283    0.00027
  284   -0.00001
  285   -0.00004
  286    0.00001
  287    0.00001
  288    0.00010
  289   -0.00001
  290    0.00009
  291    0.00008
  292    0.00010
  293   -0.00001
  294    0.00000
  295    0.00001
  296   -0.00377
  297   -0.00017
  298    0.00033
  299   -0.00001
  300    0.00001
  301    0.00001
  302    0.00007
  303   -0.00007
  304   -0.00004
  305    0.00001
  306    0.00002
  307    0.00001
  308    0.00000
  309    0.00001
  310   -0.00000
 Ene=   -14.2049
 Spin= Alpha
 Occup= 1.0
    1   -0.00000
    2   -0.00000
    3    0.00000
    4   -0.00000
    5   -0.00000
    6    0.00000
    7    0.00000
    8   -0.00000
    9   -0.00000
   10    0.00000
   11    0.00000
   12   -0.00000
   13   -0.00000
   14   -0.00000
   15   -0.00000
   16    0.00000
   17   -0.00000
   18    0.00000
   19    0.00000
   20    0.00000
   21    0.00000
   22    0.00000
   23    0.00000
   24    0.00000