 *******************************************************************************
 ** Site#: 26130        For non-commercial use only     Version 16.299L 64BITS**
 *******************************************************************************
 ** Cite this program as: MOPAC2016, Version: 16.299L, James J. P. Stewart,   **
 ** Stewart Computational Chemistry, web: HTTP://OpenMOPAC.net. Days left: 350**
 *******************************************************************************
 **                                                                           **
 **                                MOPAC2016                                  **
 **                                                                           **
 *******************************************************************************

                              PM7 CALCULATION RESULTS


 *******************************************************************************
 *  CALCULATION DONE:                                Thu Nov 10 15:53:22 2016  *
 *  PM7        - The PM7 Hamiltonian to be used
 *  DOUBLET    - SPIN STATE DEFINED AS A DOUBLET
 *  UHF        - UNRESTRICTED HARTREE-FOCK CALCULATION
 *
 *
 *
 *                 CHARGE ON SYSTEM =    +1
 *
 *
 *
 *  XYZ        - CARTESIAN COORDINATE SYSTEM TO BE USED
 *  EF         - USE EF ROUTINE FOR MINIMUM SEARCH
 *  T=         - A TIME OF 172800.0 SECONDS REQUESTED
 *  DUMP=N     - RESTART FILE WRITTEN EVERY  7200.000 SECONDS
 *  HESSIAN    - WRITE OUT HESSIAN FROM GEOMERY OPTIMIZATION
 *******************************************************************************
 EF PM7 XYZ HESSIAN DOUBLET UHF CHARGE=1
 1000_C40_2

   ATOM   CHEMICAL          X               Y               Z
  NUMBER   SYMBOL      (ANGSTROMS)     (ANGSTROMS)     (ANGSTROMS)
 
     1      Co          0.00000000  *   0.00000000  *   0.00000000  *
     2       C          0.00000000  *   0.00000000  *   1.96000000  *
     3       N          0.00000000  *   0.00000000  *   3.10510000  *
     4       C          0.00000000  *   0.00000000  *   4.64300000  *
     5       H          0.62237200  *  -0.85940300  *   4.99520000  *
     6       H         -1.05542800  *  -0.10930100  *   4.99520000  *
     7       H          0.43305700  *   0.96870400  *   4.99520000  *
     8       C         -0.00022200  *   4.94709800  *  -0.00053000  *
     9       C          0.32870000  *   4.24423100  *  -1.15514800  *
    10       C          0.31290900  *   2.85934300  *  -1.10610900  *
    11       N          0.00000000  *   2.15000000  *  -0.00000600  *
    12       C         -0.31290900  *   2.85984900  *   1.10609700  *
    13       C         -0.32851000  *   4.24476900  *   1.15402500  *
    14       H         -0.00031700  *   6.03329000  *  -0.00098600  *
    15       H          0.59048700  *   4.76188200  *  -2.07059700  *
    16       H          0.55898100  *   2.26568400  *  -1.98183900  *
    17       H         -0.55851600  *   2.26671300  *   1.98202600  *
    18       H         -0.58999500  *   4.76293800  *   2.06978500  *
    19       C          4.94709800  *  -0.00037900  *  -0.00043100  *
    20       C          4.24423100  *  -1.18230100  *  -0.21112700  *
    21       C          2.85934300  *  -1.13130400  *  -0.20381500  *
    22       N          2.15000000  *  -0.00000500  *  -0.00000200  *
    23       C          2.85984900  *   1.13129300  *   0.20381000  *
    24       C          4.24476900  *   1.18120900  *   0.21080500  *
    25       H          6.03329000  *  -0.00074700  *  -0.00071700  *
    26       H          4.76188200  *  -2.11983600  *  -0.37728100  *
    27       H          2.26568400  *  -2.02625100  *  -0.36667500  *
    28       H          2.26671300  *   2.02621500  *   0.36717500  *
    29       H          4.76293800  *   2.11889000  *   0.37736800  *
    30       C         -0.00002100  *  -4.94709800  *  -0.00057400  *
    31       C         -0.78275100  *  -4.24423100  *  -0.91088500  *
    32       C         -0.74785400  *  -2.85934300  *  -0.87298500  *
    33       N         -0.00000200  *  -2.15000000  *  -0.00000500  *
    34       C          0.74784900  *  -2.85984900  *   0.87297500  *
    35       C          0.78210800  *  -4.24476900  *   0.90994500  *
    36       H         -0.00012500  *  -6.03329000  *  -0.00102800  *
    37       H         -1.40425200  *  -4.76188200  *  -1.63221400  *
    38       H         -1.33843500  *  -2.26568400  *  -1.56484400  *
    39       H          1.33809100  *  -2.26671300  *   1.56520900  *
    40       H          1.40346500  *  -4.76293800  *   1.63168300  *
    41       C         -4.94709800  *  -0.00023700  *  -0.00052300  *
    42       C         -4.24423100  *   0.29536100  *  -1.16411800  *
    43       C         -2.85934300  *   0.28098700  *  -1.11464600  *
    44       N         -2.15000000  *   0.00000000  *  -0.00000600  *
    45       C         -2.85984900  *  -0.28098700  *   1.11463400  *
    46       C         -4.24476900  *  -0.29520400  *   1.16299100  *
    47       H         -6.03329000  *  -0.00034500  *  -0.00097600  *
    48       H         -4.76188200  *   0.53072700  *  -2.08671400  *
    49       H         -2.26568400  *   0.50178500  *  -1.99708700  *
    50       H         -2.26671300  *  -0.50131500  *   1.99726000  *
    51       H         -4.76293800  *  -0.53025800  *   2.08588800  *
    52       S          0.00009900  *   0.00022800  *  -2.28000000  *
    53       C          0.00009900  *   0.00022800  *  -4.11712800  *
    54       C          1.34296800  *  -0.55451500  *  -4.61083300  *
    55       H          1.38491300  *  -0.53867600  *  -5.70752700  *
    56       H          1.50539000  *  -1.59032600  *  -4.29571000  *
    57       H          2.19424400  *   0.04229600  *  -4.25373300  *
    58       C         -0.17344400  *   1.44998300  *  -4.59153700  *
    59       H          0.65282100  *   2.09396900  *  -4.25881600  *
    60       H         -1.10465000  *   1.89649000  *  -4.22434400  *
    61       H         -0.20022600  *   1.49875200  *  -5.68660400  *
    62       C         -1.15896600  *  -0.87335000  *  -4.62741400  *
    63       H         -1.42923800  *  -1.68950600  *  -3.94605700  *
    64       H         -0.90715100  *  -1.33707800  *  -5.58829100  *
    65       H         -2.06615400  *  -0.28000300  *  -4.79586100  *
 


          CARTESIAN COORDINATES 

    NO.       ATOM         X         Y         Z

     1        Co        0.0000    0.0000    0.0000
     2         C        0.0000    0.0000    1.9600
     3         N        0.0000    0.0000    3.1051
     4         C        0.0000    0.0000    4.6430
     5         H        0.6224   -0.8594    4.9952
     6         H       -1.0554   -0.1093    4.9952
     7         H        0.4331    0.9687    4.9952
     8         C       -0.0002    4.9471   -0.0005
     9         C        0.3287    4.2442   -1.1551
    10         C        0.3129    2.8593   -1.1061
    11         N        0.0000    2.1500   -0.0000
    12         C       -0.3129    2.8598    1.1061
    13         C       -0.3285    4.2448    1.1540
    14         H       -0.0003    6.0333   -0.0010
    15         H        0.5905    4.7619   -2.0706
    16         H        0.5590    2.2657   -1.9818
    17         H       -0.5585    2.2667    1.9820
    18         H       -0.5900    4.7629    2.0698
    19         C        4.9471   -0.0004   -0.0004
    20         C        4.2442   -1.1823   -0.2111
    21         C        2.8593   -1.1313   -0.2038
    22         N        2.1500   -0.0000   -0.0000
    23         C        2.8598    1.1313    0.2038
    24         C        4.2448    1.1812    0.2108
    25         H        6.0333   -0.0007   -0.0007
    26         H        4.7619   -2.1198   -0.3773
    27         H        2.2657   -2.0263   -0.3667
    28         H        2.2667    2.0262    0.3672
    29         H        4.7629    2.1189    0.3774
    30         C       -0.0000   -4.9471   -0.0006
    31         C       -0.7828   -4.2442   -0.9109
    32         C       -0.7479   -2.8593   -0.8730
    33         N       -0.0000   -2.1500   -0.0000
    34         C        0.7478   -2.8598    0.8730
    35         C        0.7821   -4.2448    0.9099
    36         H       -0.0001   -6.0333   -0.0010
    37         H       -1.4043   -4.7619   -1.6322
    38         H       -1.3384   -2.2657   -1.5648
    39         H        1.3381   -2.2667    1.5652
    40         H        1.4035   -4.7629    1.6317
    41         C       -4.9471   -0.0002   -0.0005
    42         C       -4.2442    0.2954   -1.1641
    43         C       -2.8593    0.2810   -1.1146
    44         N       -2.1500    0.0000   -0.0000
    45         C       -2.8598   -0.2810    1.1146
    46         C       -4.2448   -0.2952    1.1630
    47         H       -6.0333   -0.0003   -0.0010
    48         H       -4.7619    0.5307   -2.0867
    49         H       -2.2657    0.5018   -1.9971
    50         H       -2.2667   -0.5013    1.9973
    51         H       -4.7629   -0.5303    2.0859
    52         S        0.0001    0.0002   -2.2800
    53         C        0.0001    0.0002   -4.1171
    54         C        1.3430   -0.5545   -4.6108
    55         H        1.3849   -0.5387   -5.7075
    56         H        1.5054   -1.5903   -4.2957
    57         H        2.1942    0.0423   -4.2537
    58         C       -0.1734    1.4500   -4.5915
    59         H        0.6528    2.0940   -4.2588
    60         H       -1.1046    1.8965   -4.2243
    61         H       -0.2002    1.4988   -5.6866
    62         C       -1.1590   -0.8734   -4.6274
    63         H       -1.4292   -1.6895   -3.9461
    64         H       -0.9072   -1.3371   -5.5883
    65         H       -2.0662   -0.2800   -4.7959

 General Reference for PM7:
 "Optimization of Parameters for Semiempirical Methods VI: More Modifications to the 
 NDDO Approximations and Re-optimization of Parameters", J. J. P. Stewart, J. Mol. Mod., 1:32, 19 (2013)
 http://www.springerlink.com/openurl.asp?genre=article&id=doi:10.1007/s00894-012-1667-x

           Empirical Formula: C26 H32 N5 Co S  =    65 atoms



      MOLECULAR POINT GROUP   :   C1  


 DOUBLET STATE CALCULATION


          UHF CALCULATION, NO. OF ALPHA ELECTRONS =   88
                           NO. OF BETA  ELECTRONS =   87

          Geometry optimization using EF

          DIAGONAL MATRIX USED AS START HESSIAN

 CYCLE:     1 TIME:   0.344 TIME LEFT:  2.00D  GRAD.:   236.962 HEAT:  285.0550
 CYCLE:     2 TIME:   0.176 TIME LEFT:  2.00D  GRAD.:   214.696 HEAT:  281.7853
 CYCLE:     3 TIME:   0.090 TIME LEFT:  2.00D  GRAD.:    72.007 HEAT:  272.8318
 CYCLE:     4 TIME:   0.172 TIME LEFT:  2.00D  GRAD.:    78.014 HEAT:  271.1623
 CYCLE:     5 TIME:   0.102 TIME LEFT:  2.00D  GRAD.:    43.681 HEAT:  268.8183
 CYCLE:     6 TIME:   0.172 TIME LEFT:  2.00D  GRAD.:    58.298 HEAT:  268.0764
 CYCLE:     7 TIME:   0.094 TIME LEFT:  2.00D  GRAD.:    39.410 HEAT:  266.8068
 CYCLE:     8 TIME:   0.109 TIME LEFT:  2.00D  GRAD.:    79.507 HEAT:  266.1373
 CYCLE:     9 TIME:   0.094 TIME LEFT:  2.00D  GRAD.:    32.056 HEAT:  264.1184
 CYCLE:    10 TIME:   0.188 TIME LEFT:  2.00D  GRAD.:    76.029 HEAT:  263.9005
 CYCLE:    11 TIME:   0.090 TIME LEFT:  2.00D  GRAD.:    41.393 HEAT:  261.9053
 CYCLE:    12 TIME:   0.191 TIME LEFT:  2.00D  GRAD.:    90.195 HEAT:  261.7569
 CYCLE:    13 TIME:   0.090 TIME LEFT:  2.00D  GRAD.:    40.593 HEAT:  258.9517
 CYCLE:    14 TIME:   0.105 TIME LEFT:  2.00D  GRAD.:    89.862 HEAT:  258.4924
 CYCLE:    15 TIME:   0.094 TIME LEFT:  2.00D  GRAD.:    77.242 HEAT:  254.9608
 CYCLE:    16 TIME:   0.262 TIME LEFT:  2.00D  GRAD.:    39.925 HEAT:  253.6694
 CYCLE:    17 TIME:   0.094 TIME LEFT:  2.00D  GRAD.:    44.372 HEAT:  253.0303
 CYCLE:    18 TIME:   0.090 TIME LEFT:  2.00D  GRAD.:    43.854 HEAT:  252.1322
 CYCLE:    19 TIME:   0.090 TIME LEFT:  2.00D  GRAD.:    38.867 HEAT:  250.8051
 CYCLE:    20 TIME:   0.090 TIME LEFT:  2.00D  GRAD.:    78.076 HEAT:  250.4233
 CYCLE:    21 TIME:   0.098 TIME LEFT:  2.00D  GRAD.:   104.776 HEAT:  250.3362
 CYCLE:    22 TIME:   0.184 TIME LEFT:  2.00D  GRAD.:    65.679 HEAT:  248.7945
 CYCLE:    23 TIME:   0.172 TIME LEFT:  2.00D  GRAD.:    28.860 HEAT:  247.7960
 CYCLE:    24 TIME:   0.168 TIME LEFT:  2.00D  GRAD.:    18.101 HEAT:  247.5399
 CYCLE:    25 TIME:   0.086 TIME LEFT:  2.00D  GRAD.:    20.185 HEAT:  247.3600
 CYCLE:    26 TIME:   0.082 TIME LEFT:  2.00D  GRAD.:    24.991 HEAT:  247.1237
 CYCLE:    27 TIME:   0.082 TIME LEFT:  2.00D  GRAD.:    35.757 HEAT:  246.9125
 CYCLE:    28 TIME:   0.082 TIME LEFT:  2.00D  GRAD.:    33.659 HEAT:  246.5725
 CYCLE:    29 TIME:   0.090 TIME LEFT:  2.00D  GRAD.:    37.662 HEAT:  246.3530
 CYCLE:    30 TIME:   0.090 TIME LEFT:  2.00D  GRAD.:    38.660 HEAT:  246.0062
 CYCLE:    31 TIME:   0.090 TIME LEFT:  2.00D  GRAD.:    35.777 HEAT:  245.6684
 CYCLE:    32 TIME:   0.172 TIME LEFT:  2.00D  GRAD.:    28.943 HEAT:  245.4274
 CYCLE:    33 TIME:   0.082 TIME LEFT:  2.00D  GRAD.:    25.171 HEAT:  245.2524
 CYCLE:    34 TIME:   0.082 TIME LEFT:  2.00D  GRAD.:    29.282 HEAT:  245.1074
 CYCLE:    35 TIME:   0.082 TIME LEFT:  2.00D  GRAD.:    11.988 HEAT:  244.8294
 CYCLE:    36 TIME:   0.078 TIME LEFT:  2.00D  GRAD.:    23.724 HEAT:  244.6516
 CYCLE:    37 TIME:   0.082 TIME LEFT:  2.00D  GRAD.:    19.975 HEAT:  244.2305
 CYCLE:    38 TIME:   0.098 TIME LEFT:  2.00D  GRAD.:    55.897 HEAT:  244.1343
 CYCLE:    39 TIME:   0.086 TIME LEFT:  2.00D  GRAD.:    55.038 HEAT:  243.3411
 CYCLE:    40 TIME:   0.270 TIME LEFT:  2.00D  GRAD.:    26.942 HEAT:  242.7128
 CYCLE:    41 TIME:   0.086 TIME LEFT:  2.00D  GRAD.:    29.100 HEAT:  242.5057
 CYCLE:    42 TIME:   0.086 TIME LEFT:  2.00D  GRAD.:    27.350 HEAT:  242.2442
 CYCLE:    43 TIME:   0.094 TIME LEFT:  2.00D  GRAD.:    25.332 HEAT:  241.9249
 CYCLE:    44 TIME:   0.094 TIME LEFT:  2.00D  GRAD.:    36.920 HEAT:  241.6006
 CYCLE:    45 TIME:   0.090 TIME LEFT:  2.00D  GRAD.:    45.678 HEAT:  241.2731
 CYCLE:    46 TIME:   0.215 TIME LEFT:  2.00D  GRAD.:    42.725 HEAT:  241.1251
 CYCLE:    47 TIME:   0.121 TIME LEFT:  2.00D  GRAD.:    31.771 HEAT:  240.8110
 CYCLE:    48 TIME:   0.227 TIME LEFT:  2.00D  GRAD.:    15.467 HEAT:  240.5692
 CYCLE:    49 TIME:   0.113 TIME LEFT:  2.00D  GRAD.:    19.301 HEAT:  240.4653
 CYCLE:    50 TIME:   0.109 TIME LEFT:  2.00D  GRAD.:    18.762 HEAT:  240.3158
 CYCLE:    51 TIME:   0.117 TIME LEFT:  2.00D  GRAD.:    19.204 HEAT:  240.1638
 CYCLE:    52 TIME:   0.102 TIME LEFT:  2.00D  GRAD.:    16.828 HEAT:  239.8799
 CYCLE:    53 TIME:   0.105 TIME LEFT:  2.00D  GRAD.:    37.483 HEAT:  239.7993
 CYCLE:    54 TIME:   0.086 TIME LEFT:  2.00D  GRAD.:    40.355 HEAT:  239.5457
 CYCLE:    55 TIME:   0.168 TIME LEFT:  2.00D  GRAD.:    35.965 HEAT:  239.4160
 CYCLE:    56 TIME:   0.086 TIME LEFT:  2.00D  GRAD.:    21.892 HEAT:  239.1002
 CYCLE:    57 TIME:   0.168 TIME LEFT:  2.00D  GRAD.:    27.381 HEAT:  239.0852
 CYCLE:    58 TIME:   0.082 TIME LEFT:  2.00D  GRAD.:    11.541 HEAT:  238.8533
 CYCLE:    59 TIME:   0.164 TIME LEFT:  2.00D  GRAD.:    14.363 HEAT:  238.8035
 CYCLE:    60 TIME:   0.082 TIME LEFT:  2.00D  GRAD.:     9.994 HEAT:  238.7083
 CYCLE:    61 TIME:   0.082 TIME LEFT:  2.00D  GRAD.:    18.841 HEAT:  238.6670
 CYCLE:    62 TIME:   0.082 TIME LEFT:  2.00D  GRAD.:    11.419 HEAT:  238.5207
 CYCLE:    63 TIME:   0.082 TIME LEFT:  2.00D  GRAD.:    20.992 HEAT:  238.4705
 CYCLE:    64 TIME:   0.078 TIME LEFT:  2.00D  GRAD.:    17.698 HEAT:  238.2945
 CYCLE:    65 TIME:   0.172 TIME LEFT:  2.00D  GRAD.:    19.007 HEAT:  238.2705
 CYCLE:    66 TIME:   0.082 TIME LEFT:  2.00D  GRAD.:     9.820 HEAT:  238.1013
 CYCLE:    67 TIME:   0.090 TIME LEFT:  2.00D  GRAD.:    19.818 HEAT:  238.0547
 CYCLE:    68 TIME:   0.086 TIME LEFT:  2.00D  GRAD.:     9.390 HEAT:  237.8356
 CYCLE:    69 TIME:   0.238 TIME LEFT:  2.00D  GRAD.:    17.612 HEAT:  237.8354
 CYCLE:    70 TIME:   0.078 TIME LEFT:  2.00D  GRAD.:     9.454 HEAT:  237.7247
 CYCLE:    71 TIME:   0.082 TIME LEFT:  2.00D  GRAD.:    15.794 HEAT:  237.6949
 CYCLE:    72 TIME:   0.082 TIME LEFT:  2.00D  GRAD.:     5.468 HEAT:  237.5382
 CYCLE:    73 TIME:   0.078 TIME LEFT:  2.00D  GRAD.:    14.721 HEAT:  237.4157
 CYCLE:    74 TIME:   0.082 TIME LEFT:  2.00D  GRAD.:     7.154 HEAT:  237.1102
 CYCLE:    75 TIME:   0.086 TIME LEFT:  2.00D  GRAD.:    21.648 HEAT:  236.9090
 CYCLE:    76 TIME:   0.086 TIME LEFT:  2.00D  GRAD.:    15.918 HEAT:  236.3567
 CYCLE:    77 TIME:   0.094 TIME LEFT:  2.00D  GRAD.:    36.351 HEAT:  236.1627
 CYCLE:    78 TIME:   0.098 TIME LEFT:  2.00D  GRAD.:    19.812 HEAT:  235.2192
 CYCLE:    79 TIME:   0.434 TIME LEFT:  2.00D  GRAD.:    12.452 HEAT:  235.0774
 CYCLE:    80 TIME:   0.086 TIME LEFT:  2.00D  GRAD.:     7.759 HEAT:  234.9710
 CYCLE:    81 TIME:   0.086 TIME LEFT:  2.00D  GRAD.:    13.243 HEAT:  234.8982
 CYCLE:    82 TIME:   0.078 TIME LEFT:  2.00D  GRAD.:     8.558 HEAT:  234.7749
 CYCLE:    83 TIME:   0.086 TIME LEFT:  2.00D  GRAD.:    15.261 HEAT:  234.6967
 CYCLE:    84 TIME:   0.082 TIME LEFT:  2.00D  GRAD.:    12.054 HEAT:  234.4927
 CYCLE:    85 TIME:   0.090 TIME LEFT:  2.00D  GRAD.:    20.993 HEAT:  234.2533
 CYCLE:    86 TIME:   0.098 TIME LEFT:  2.00D  GRAD.:    19.839 HEAT:  233.8045
 CYCLE:    87 TIME:   0.094 TIME LEFT:  2.00D  GRAD.:    30.977 HEAT:  233.5143
 CYCLE:    88 TIME:   0.102 TIME LEFT:  2.00D  GRAD.:    30.666 HEAT:  233.0316
 CYCLE:    89 TIME:   0.262 TIME LEFT:  2.00D  GRAD.:    23.723 HEAT:  232.8375
 CYCLE:    90 TIME:   0.086 TIME LEFT:  2.00D  GRAD.:    26.526 HEAT:  232.7918
 CYCLE:    91 TIME:   0.086 TIME LEFT:  2.00D  GRAD.:    18.678 HEAT:  232.5893
 CYCLE:    92 TIME:   0.160 TIME LEFT:  2.00D  GRAD.:    12.600 HEAT:  232.4912
 CYCLE:    93 TIME:   0.082 TIME LEFT:  2.00D  GRAD.:    10.040 HEAT:  232.4257
 CYCLE:    94 TIME:   0.090 TIME LEFT:  2.00D  GRAD.:    10.779 HEAT:  232.3713
 CYCLE:    95 TIME:   0.082 TIME LEFT:  2.00D  GRAD.:    10.672 HEAT:  232.3000
 CYCLE:    96 TIME:   0.086 TIME LEFT:  2.00D  GRAD.:    13.364 HEAT:  232.2344
 CYCLE:    97 TIME:   0.164 TIME LEFT:  2.00D  GRAD.:    11.083 HEAT:  232.1791
 CYCLE:    98 TIME:   0.113 TIME LEFT:  2.00D  GRAD.:    13.171 HEAT:  232.1426
 CYCLE:    99 TIME:   0.090 TIME LEFT:  2.00D  GRAD.:    10.328 HEAT:  232.0777
 CYCLE:   100 TIME:   0.090 TIME LEFT:  2.00D  GRAD.:    10.902 HEAT:  232.0192
 CYCLE:   101 TIME:   0.078 TIME LEFT:  2.00D  GRAD.:    10.837 HEAT:  231.9499
 CYCLE:   102 TIME:   0.086 TIME LEFT:  2.00D  GRAD.:    12.550 HEAT:  231.8369
 CYCLE:   103 TIME:   0.086 TIME LEFT:  2.00D  GRAD.:    16.318 HEAT:  231.8047
 CYCLE:   104 TIME:   0.090 TIME LEFT:  2.00D  GRAD.:    13.582 HEAT:  231.6711
 CYCLE:   105 TIME:   0.094 TIME LEFT:  2.00D  GRAD.:    18.457 HEAT:  231.5111
 CYCLE:   106 TIME:   0.098 TIME LEFT:  2.00D  GRAD.:    20.696 HEAT:  231.3337
 CYCLE:   107 TIME:   0.332 TIME LEFT:  2.00D  GRAD.:    14.108 HEAT:  231.2455
 CYCLE:   108 TIME:   0.082 TIME LEFT:  2.00D  GRAD.:    11.197 HEAT:  231.1840
 CYCLE:   109 TIME:   0.086 TIME LEFT:  2.00D  GRAD.:     7.699 HEAT:  231.1344
 CYCLE:   110 TIME:   0.086 TIME LEFT:  2.00D  GRAD.:    10.658 HEAT:  231.1188
 CYCLE:   111 TIME:   0.086 TIME LEFT:  2.00D  GRAD.:     7.589 HEAT:  231.0609
 CYCLE:   112 TIME:   0.090 TIME LEFT:  2.00D  GRAD.:     7.344 HEAT:  231.0141
 CYCLE:   113 TIME:   0.082 TIME LEFT:  2.00D  GRAD.:     9.147 HEAT:  230.9671
 CYCLE:   114 TIME:   0.078 TIME LEFT:  2.00D  GRAD.:     9.706 HEAT:  230.9391
 CYCLE:   115 TIME:   0.078 TIME LEFT:  2.00D  GRAD.:    12.213 HEAT:  230.9380
 CYCLE:   116 TIME:   0.094 TIME LEFT:  2.00D  GRAD.:    12.398 HEAT:  230.8604
 CYCLE:   117 TIME:   0.238 TIME LEFT:  2.00D  GRAD.:    13.522 HEAT:  230.8561
 CYCLE:   118 TIME:   0.082 TIME LEFT:  2.00D  GRAD.:     8.603 HEAT:  230.7712
 CYCLE:   119 TIME:   0.086 TIME LEFT:  2.00D  GRAD.:    10.437 HEAT:  230.7465
 CYCLE:   120 TIME:   0.086 TIME LEFT:  2.00D  GRAD.:     9.618 HEAT:  230.7099
 CYCLE:   121 TIME:   0.082 TIME LEFT:  2.00D  GRAD.:    10.697 HEAT:  230.6885
 CYCLE:   122 TIME:   0.086 TIME LEFT:  2.00D  GRAD.:    10.323 HEAT:  230.6807
 CYCLE:   123 TIME:   0.082 TIME LEFT:  2.00D  GRAD.:     8.921 HEAT:  230.6395
 CYCLE:   124 TIME:   0.090 TIME LEFT:  2.00D  GRAD.:     9.352 HEAT:  230.6112
 CYCLE:   125 TIME:   0.094 TIME LEFT:  2.00D  GRAD.:    10.703 HEAT:  230.6012
 CYCLE:   126 TIME:   0.078 TIME LEFT:  2.00D  GRAD.:     9.036 HEAT:  230.5699
 CYCLE:   127 TIME:   0.094 TIME LEFT:  2.00D  GRAD.:    10.769 HEAT:  230.5549
 CYCLE:   128 TIME:   0.082 TIME LEFT:  2.00D  GRAD.:     6.811 HEAT:  230.5165
 CYCLE:   129 TIME:   0.234 TIME LEFT:  2.00D  GRAD.:     5.242 HEAT:  230.5025
 CYCLE:   130 TIME:   0.082 TIME LEFT:  2.00D  GRAD.:     3.976 HEAT:  230.4897
 CYCLE:   131 TIME:   0.078 TIME LEFT:  2.00D  GRAD.:     4.065 HEAT:  230.4774
 CYCLE:   132 TIME:   0.082 TIME LEFT:  2.00D  GRAD.:     3.406 HEAT:  230.4612
 CYCLE:   133 TIME:   0.078 TIME LEFT:  2.00D  GRAD.:     4.920 HEAT:  230.4454
 CYCLE:   134 TIME:   0.078 TIME LEFT:  2.00D  GRAD.:     5.151 HEAT:  230.4318
 CYCLE:   135 TIME:   0.082 TIME LEFT:  2.00D  GRAD.:     6.835 HEAT:  230.4149
 CYCLE:   136 TIME:   0.156 TIME LEFT:  2.00D  GRAD.:     4.788 HEAT:  230.3994
 CYCLE:   137 TIME:   0.078 TIME LEFT:  2.00D  GRAD.:     6.860 HEAT:  230.3905
 CYCLE:   138 TIME:   0.082 TIME LEFT:  2.00D  GRAD.:     3.776 HEAT:  230.3636
 CYCLE:   139 TIME:   0.086 TIME LEFT:  2.00D  GRAD.:     7.792 HEAT:  230.3583
 CYCLE:   140 TIME:   0.086 TIME LEFT:  2.00D  GRAD.:     3.758 HEAT:  230.3309
 CYCLE:   141 TIME:   0.082 TIME LEFT:  2.00D  GRAD.:     5.971 HEAT:  230.3087
 CYCLE:   142 TIME:   0.082 TIME LEFT:  2.00D  GRAD.:     3.030 HEAT:  230.2940
 CYCLE:   143 TIME:   0.090 TIME LEFT:  2.00D  GRAD.:     7.416 HEAT:  230.2823
 CYCLE:   144 TIME:   0.078 TIME LEFT:  2.00D  GRAD.:     4.188 HEAT:  230.2503
 CYCLE:   145 TIME:   0.156 TIME LEFT:  2.00D  GRAD.:     5.377 HEAT:  230.2499
 CYCLE:   146 TIME:   0.078 TIME LEFT:  2.00D  GRAD.:     1.506 HEAT:  230.2303
 CYCLE:   147 TIME:   0.086 TIME LEFT:  2.00D  GRAD.:     2.495 HEAT:  230.2196
 CYCLE:   148 TIME:   0.082 TIME LEFT:  2.00D  GRAD.:     2.035 HEAT:  230.2034
 CYCLE:   149 TIME:   0.086 TIME LEFT:  2.00D  GRAD.:     3.453 HEAT:  230.1835
 CYCLE:   150 TIME:   0.078 TIME LEFT:  2.00D  GRAD.:     3.986 HEAT:  230.1590
 CYCLE:   151 TIME:   0.082 TIME LEFT:  2.00D  GRAD.:     4.595 HEAT:  230.1451
 CYCLE:   152 TIME:   0.086 TIME LEFT:  2.00D  GRAD.:     2.779 HEAT:  230.1349
 CYCLE:   153 TIME:   0.090 TIME LEFT:  2.00D  GRAD.:     5.459 HEAT:  230.1019
 CYCLE:   154 TIME:   0.082 TIME LEFT:  2.00D  GRAD.:     4.750 HEAT:  230.0587
 CYCLE:   155 TIME:   0.238 TIME LEFT:  2.00D  GRAD.:     3.173 HEAT:  230.0524
 CYCLE:   156 TIME:   0.090 TIME LEFT:  2.00D  GRAD.:     3.100 HEAT:  230.0546
 CYCLE:   157 TIME:   0.086 TIME LEFT:  2.00D  GRAD.:     2.520 HEAT:  230.0377
 CYCLE:   158 TIME:   0.086 TIME LEFT:  2.00D  GRAD.:     4.058 HEAT:  230.0285
 CYCLE:   159 TIME:   0.098 TIME LEFT:  2.00D  GRAD.:     1.974 HEAT:  230.0155
 CYCLE:   160 TIME:   0.121 TIME LEFT:  2.00D  GRAD.:     2.996 HEAT:  229.9954
 CYCLE:   161 TIME:   0.113 TIME LEFT:  2.00D  GRAD.:     5.280 HEAT:  229.9618
 CYCLE:   162 TIME:   0.109 TIME LEFT:  2.00D  GRAD.:     2.325 HEAT:  229.9377
 CYCLE:   163 TIME:   0.266 TIME LEFT:  2.00D  GRAD.:     3.343 HEAT:  229.9385
 CYCLE:   164 TIME:   0.082 TIME LEFT:  2.00D  GRAD.:     1.379 HEAT:  229.9318
 CYCLE:   165 TIME:   0.094 TIME LEFT:  2.00D  GRAD.:     3.339 HEAT:  229.9098
 CYCLE:   166 TIME:   0.090 TIME LEFT:  2.00D  GRAD.:     3.868 HEAT:  229.8787
 CYCLE:   167 TIME:   0.082 TIME LEFT:  2.00D  GRAD.:     3.689 HEAT:  229.8601
 CYCLE:   168 TIME:   0.156 TIME LEFT:  2.00D  GRAD.:     3.122 HEAT:  229.8600
 CYCLE:   169 TIME:   0.082 TIME LEFT:  2.00D  GRAD.:     1.750 HEAT:  229.8556
 CYCLE:   170 TIME:   0.090 TIME LEFT:  2.00D  GRAD.:     2.265 HEAT:  229.8415
 CYCLE:   171 TIME:   0.098 TIME LEFT:  2.00D  GRAD.:     2.434 HEAT:  229.8138
 CYCLE:   172 TIME:   0.102 TIME LEFT:  2.00D  GRAD.:     3.156 HEAT:  229.7815
 CYCLE:   173 TIME:   0.098 TIME LEFT:  2.00D  GRAD.:     4.014 HEAT:  229.7553
 CYCLE:   174 TIME:   0.082 TIME LEFT:  2.00D  GRAD.:     1.746 HEAT:  229.7544
 CYCLE:   175 TIME:   0.191 TIME LEFT:  2.00D  GRAD.:     4.836 HEAT:  229.7468
 CYCLE:   176 TIME:   0.078 TIME LEFT:  2.00D  GRAD.:     2.749 HEAT:  229.7341
 CYCLE:   177 TIME:   0.078 TIME LEFT:  2.00D  GRAD.:     1.703 HEAT:  229.7307
 CYCLE:   178 TIME:   0.086 TIME LEFT:  2.00D  GRAD.:     1.495 HEAT:  229.7255
 CYCLE:   179 TIME:   0.090 TIME LEFT:  2.00D  GRAD.:     1.546 HEAT:  229.7158
 CYCLE:   180 TIME:   0.098 TIME LEFT:  2.00D  GRAD.:     3.243 HEAT:  229.6908
 CYCLE:   181 TIME:   0.082 TIME LEFT:  2.00D  GRAD.:     3.184 HEAT:  229.6740
 CYCLE:   182 TIME:   0.082 TIME LEFT:  2.00D  GRAD.:     1.540 HEAT:  229.6731
 CYCLE:   183 TIME:   0.082 TIME LEFT:  2.00D  GRAD.:     1.300 HEAT:  229.6648
 CYCLE:   184 TIME:   0.082 TIME LEFT:  2.00D  GRAD.:     1.926 HEAT:  229.6605
 CYCLE:   185 TIME:   0.082 TIME LEFT:  2.00D  GRAD.:     1.625 HEAT:  229.6543
 CYCLE:   186 TIME:   0.098 TIME LEFT:  2.00D  GRAD.:     1.195 HEAT:  229.6347
 CYCLE:   187 TIME:   0.102 TIME LEFT:  2.00D  GRAD.:     4.733 HEAT:  229.6057
 CYCLE:   188 TIME:   0.082 TIME LEFT:  2.00D  GRAD.:     3.226 HEAT:  229.6017
 CYCLE:   189 TIME:   0.156 TIME LEFT:  2.00D  GRAD.:     3.397 HEAT:  229.5935
 CYCLE:   190 TIME:   0.102 TIME LEFT:  2.00D  GRAD.:     4.369 HEAT:  229.5868
 CYCLE:   191 TIME:   0.109 TIME LEFT:  2.00D  GRAD.:     2.205 HEAT:  229.5806
 CYCLE:   192 TIME:   0.098 TIME LEFT:  2.00D  GRAD.:     1.355 HEAT:  229.5760
 CYCLE:   193 TIME:   0.113 TIME LEFT:  2.00D  GRAD.:     1.020 HEAT:  229.5732
 CYCLE:   194 TIME:   0.105 TIME LEFT:  2.00D  GRAD.:     0.840 HEAT:  229.5703

     GRADIENT =  0.83985  IS LESS THAN CUTOFF =  1.00000



 -------------------------------------------------------------------------------
 EF PM7 XYZ HESSIAN DOUBLET UHF CHARGE=1
 1000_C40_2



     GEOMETRY OPTIMISED USING EIGENVECTOR FOLLOWING (EF).     
     SCF FIELD WAS ACHIEVED                                   


                              PM7 CALCULATION
                                                       MOPAC2016 (Version: 16.299L)
                                                       Thu Nov 10 15:53:43 2016
                                                       No. of days remaining = 350




          FINAL HEAT OF FORMATION =        229.57010 KCAL/MOL =     960.52132 KJ/MOL


          TOTAL ENERGY            =      -5128.80076 EV
          ELECTRONIC ENERGY       =     -55390.40287 EV  POINT GROUP:     C1  
          CORE-CORE REPULSION     =      50261.60211 EV
          COSMO AREA              =        429.13 SQUARE ANGSTROMS
          COSMO VOLUME            =        592.96 CUBIC ANGSTROMS

          GRADIENT NORM           =          0.83985
          IONIZATION POTENTIAL    =          9.353600 EV
          ALPHA SOMO LUMO (EV)    =         -9.531 -3.519
          BETA  SOMO LUMO (EV)    =         -9.354 -3.529
          NO. OF ALPHA ELECTRONS  =         88
          NO. OF BETA  ELECTRONS  =         87
          MOLECULAR WEIGHT        =        505.5655

          MOLECULAR DIMENSIONS (Angstroms)

            Atom       Atom       Distance
            H    36    H    14    11.76214
            H    36    H    14    11.75902
            H    61    H     5    10.12955


          SCF CALCULATIONS        =        240
 
          WALL-CLOCK TIME         =         21.359 SECONDS
          COMPUTATION TIME        =  1 MINUTE AND 20.500 SECONDS




   ATOM   CHEMICAL          X               Y               Z
  NUMBER   SYMBOL      (ANGSTROMS)     (ANGSTROMS)     (ANGSTROMS)
 
     1      Co          0.04670067  *   0.00711832  *   0.21654000  *
     2       C          0.07571445  *   0.03966594  *   1.69772210  *
     3       N          0.31585756  *  -0.05098117  *   2.92335912  *
     4       C         -0.47462996  *   0.37628930  *   4.05452104  *
     5       H         -0.47031037  *  -0.43711261  *   4.80817485  *
     6       H         -1.52013841  *   0.62394746  *   3.81632415  *
     7       H          0.00128471  *   1.25792391  *   4.52605346  *
     8       C         -0.02796337  *   4.79634394  *  -0.35511575  *
     9       C          0.75960068  *   3.99627019  *  -1.17033744  *
    10       C          0.82700189  *   2.61709739  *  -0.92821398  *
    11       N          0.13981994  *   2.03287537  *   0.09136344  *
    12       C         -0.61753167  *   2.83456694  *   0.90232239  *
    13       C         -0.72327661  *   4.20552591  *   0.70569423  *
    14       H         -0.10486002  *   5.87217590  *  -0.53291475  *
    15       H          1.32039497  *   4.41810958  *  -2.00646976  *
    16       H          1.42630770  *   1.93897024  *  -1.57479676  *
    17       H         -1.13805503  *   2.32196090  *   1.72102744  *
    18       H         -1.34146997  *   4.80929721  *   1.37011330  *
    19       C          4.82169580  *   0.08802588  *  -0.39433230  *
    20       C          4.02168313  *  -0.72937157  *  -1.18177613  *
    21       C          2.64602270  *  -0.79824985  *  -0.93065101  *
    22       N          2.06232518  *  -0.08374176  *   0.07210748  *
    23       C          2.86407508  *   0.69297284  *   0.86400604  *
    24       C          4.23370748  *   0.80309392  *   0.65275739  *
    25       H          5.89533844  *   0.16890871  *  -0.58406187  *
    26       H          4.44360369  *  -1.31292608  *  -2.00181770  *
    27       H          1.96827316  *  -1.42278980  *  -1.55312960  *
    28       H          2.35618592  *   1.21936032  *   1.68585096  *
    29       H          4.83645852  *   1.43961045  *   1.30096148  *
    30       C          0.13386584  *  -4.80012436  *  -0.13052579  *
    31       C         -0.68447239  *  -4.04305713  *  -0.95846020  *
    32       C         -0.75399719  *  -2.65647753  *  -0.77780833  *
    33       N         -0.03899631  *  -2.02047148  *   0.19154615  *
    34       C          0.74792851  *  -2.77787404  *   1.01663119  *
    35       C          0.85556638  *  -4.15689807  *   0.87911475  *
    36       H          0.21248643  *  -5.88259122  *  -0.26148608  *
    37       H         -1.26687989  *  -4.50676040  *  -1.75609608  *
    38       H         -1.37802397  *  -2.01113196  *  -1.43502505  *
    39       H          1.28829059  *  -2.22508787  *   1.80215531  *
    40       H          1.49686176  *  -4.72412245  *   1.55430597  *
    41       C         -4.75886612  *  -0.09277430  *  -0.15306599  *
    42       C         -4.00496673  *   0.71916651  *  -0.98881816  *
    43       C         -2.61668077  *   0.79280306  *  -0.81339914  *
    44       N         -1.97917654  *   0.09098119  *   0.16426867  *
    45       C         -2.73403479  *  -0.69370418  *   0.99422083  *
    46       C         -4.11190987  *  -0.80750335  *   0.86075885  *
    47       H         -5.84196306  *  -0.17383545  *  -0.28009149  *
    48       H         -4.47118702  *   1.29487443  *  -1.79096291  *
    49       H         -1.97478298  *   1.41129140  *  -1.47966712  *
    50       H         -2.17667920  *  -1.23362634  *   1.77240589  *
    51       H         -4.67767935  *  -1.44897080  *   1.53702699  *
    52       S         -0.02379331  *  -0.01638647  *  -1.90027482  *
    53       C         -0.09450515  *  -0.09077696  *  -3.74631634  *
    54       C          1.21169615  *  -0.71266086  *  -4.25335871  *
    55       H          1.21656651  *  -0.76644213  *  -5.34868918  *
    56       H          1.34683465  *  -1.72965053  *  -3.87186020  *
    57       H          2.08131231  *  -0.12317513  *  -3.94530570  *
    58       C         -0.25543305  *   1.33772870  *  -4.27837810  *
    59       H          0.57923618  *   1.97615099  *  -3.97230579  *
    60       H         -1.17466128  *   1.80328177  *  -3.90955579  *
    61       H         -0.29465854  *   1.34279628  *  -5.37418646  *
    62       C         -1.29515783  *  -0.95388343  *  -4.15203515  *
    63       H         -1.19382799  *  -1.98071336  *  -3.78812847  *
    64       H         -1.39058466  *  -0.99652295  *  -5.24359325  *
    65       H         -2.23142675  *  -0.55293562  *  -3.75154558  *

                             CARTESIAN COORDINATES

   1   Co        0.046700672     0.007118321     0.216539999
   2    C        0.075714449     0.039665937     1.697722100
   3    N        0.315857555    -0.050981167     2.923359115
   4    C       -0.474629964     0.376289296     4.054521042
   5    H       -0.470310369    -0.437112610     4.808174849
   6    H       -1.520138406     0.623947457     3.816324151
   7    H        0.001284711     1.257923912     4.526053459
   8    C       -0.027963369     4.796343938    -0.355115749
   9    C        0.759600678     3.996270185    -1.170337438
  10    C        0.827001894     2.617097391    -0.928213978
  11    N        0.139819942     2.032875370     0.091363439
  12    C       -0.617531667     2.834566938     0.902322389
  13    C       -0.723276614     4.205525909     0.705694227
  14    H       -0.104860021     5.872175895    -0.532914753
  15    H        1.320394973     4.418109584    -2.006469764
  16    H        1.426307703     1.938970237    -1.574796760
  17    H       -1.138055030     2.321960899     1.721027436
  18    H       -1.341469965     4.809297211     1.370113299
  19    C        4.821695803     0.088025882    -0.394332300
  20    C        4.021683128    -0.729371575    -1.181776134
  21    C        2.646022700    -0.798249854    -0.930651007
  22    N        2.062325184    -0.083741756     0.072107483
  23    C        2.864075080     0.692972836     0.864006038
  24    C        4.233707482     0.803093916     0.652757389
  25    H        5.895338436     0.168908712    -0.584061871
  26    H        4.443603691    -1.312926084    -2.001817696
  27    H        1.968273155    -1.422789802    -1.553129598
  28    H        2.356185919     1.219360321     1.685850961
  29    H        4.836458520     1.439610445     1.300961483
  30    C        0.133865836    -4.800124364    -0.130525788
  31    C       -0.684472385    -4.043057127    -0.958460198
  32    C       -0.753997194    -2.656477532    -0.777808329
  33    N       -0.038996313    -2.020471482     0.191546153
  34    C        0.747928510    -2.777874039     1.016631193
  35    C        0.855566379    -4.156898072     0.879114753
  36    H        0.212486431    -5.882591217    -0.261486079
  37    H       -1.266879894    -4.506760400    -1.756096076
  38    H       -1.378023975    -2.011131957    -1.435025050
  39    H        1.288290588    -2.225087872     1.802155311
  40    H        1.496861755    -4.724122451     1.554305967
  41    C       -4.758866120    -0.092774304    -0.153065989
  42    C       -4.004966733     0.719166513    -0.988818156
  43    C       -2.616680765     0.792803056    -0.813399141
  44    N       -1.979176543     0.090981193     0.164268671
  45    C       -2.734034786    -0.693704181     0.994220834
  46    C       -4.111909869    -0.807503346     0.860758853
  47    H       -5.841963062    -0.173835451    -0.280091490
  48    H       -4.471187025     1.294874433    -1.790962915
  49    H       -1.974782976     1.411291396    -1.479667122
  50    H       -2.176679200    -1.233626338     1.772405890
  51    H       -4.677679354    -1.448970796     1.537026994
  52    S       -0.023793306    -0.016386471    -1.900274817
  53    C       -0.094505150    -0.090776956    -3.746316338
  54    C        1.211696148    -0.712660864    -4.253358711
  55    H        1.216566513    -0.766442129    -5.348689181
  56    H        1.346834645    -1.729650532    -3.871860197
  57    H        2.081312314    -0.123175129    -3.945305697
  58    C       -0.255433051     1.337728699    -4.278378096
  59    H        0.579236178     1.976150993    -3.972305794
  60    H       -1.174661279     1.803281774    -3.909555793
  61    H       -0.294658544     1.342796279    -5.374186455
  62    C       -1.295157828    -0.953883433    -4.152035154
  63    H       -1.193827987    -1.980713356    -3.788128471
  64    H       -1.390584664    -0.996522949    -5.243593254
  65    H       -2.231426753    -0.552935616    -3.751545584


           Empirical Formula: C26 H32 N5 Co S  =    65 atoms

    Hessian matrix from geometry optimization
  837.8149
    1.8796  803.7581
    4.3562  -22.6345  974.5852
 -279.7883  -17.0500   37.2518  578.1055
   -9.3196 -234.3172  -10.1329  -31.9920  435.5590
  -39.3643  -32.8022 -239.9835  239.0591  -69.9795 1938.1431
   12.1721  -15.8890  -11.8636 -227.8552   34.3690 -261.8862  519.5422
   -4.7387   -8.5011   16.0561   18.7506 -134.2960  105.1999  -70.3066  311.5508
   75.2223   46.7615 -285.8350 -286.3960   83.9991-1590.4870   46.2806  -23.8806 2728.8546
  -50.5923   45.1302  -46.0351  -12.6981  -10.3807   -1.9647 -273.7148   65.4498  256.1305  879.7241
   -6.4950  -69.0218   22.0525   11.0909    5.1877   14.2443   45.3888 -154.6193 -101.4858  -21.3529
  753.9487
  -23.8212   -3.8921   41.2616  -15.6470  -17.1862  -69.2189  227.6674  -59.7876 -647.8080 -163.6938
   40.5311 1125.1130
   -5.1499   -4.3406   -1.6676   -3.1496    3.4347   24.6811   23.0152  -13.1212  -11.4001 -102.8495
   73.1098  -61.0885  226.4952
    0.6284   -1.8211   11.2612   -1.4359   -4.6342  -29.6764   -2.5828   26.4894   17.9190   38.4144
 -208.7742  185.3194  -62.9019  381.7848
    2.0024  -10.0384  -15.6012    6.3237    0.1021   -8.6760  -15.4488   -0.7718  -58.3705  -27.6446
  153.0950 -202.9644   56.5278 -177.7088  338.3429
   12.1022   -6.4758   14.3796   39.9568    6.3883  -10.6312  -14.1486    8.1060  -13.7172 -408.8336
    4.1564   65.9913   28.6499   12.1700  -29.7867  564.7781
   -0.7946   -7.1341   -5.5325   -4.8518    0.1624    6.7488   12.3579   -5.6999  -21.5262   -0.5134
  -54.6407    6.7128    5.8263    3.4171   -2.4603   -3.2307  194.2419
   -6.7614   -1.0968    8.2051    9.7223   -2.2292   28.3439   47.3933   -3.7911  -37.4727  -28.7018
   -3.1293  -60.0833   -3.6014   11.9988  -21.0617   16.3620   -2.6256  162.1033
   -2.8838    8.5142   -2.8409    4.9913    4.6546    5.4007   14.9138   16.4122   -4.4587  -91.6035
  -75.0283  -31.5521    2.3982    6.3709    2.2311   25.5605   10.0367    4.9550  220.8391
   -0.0282   16.3978  -11.1319   10.1728   31.0587   11.5413    2.8334   11.3622  -18.3870  -59.5144
 -322.9497 -142.3727    6.3764   14.1288   14.2851  -12.2850   24.1106   12.8795   84.5973  474.1106
   -2.9105    5.1165    8.8353   11.8350   18.1909   10.9083   14.1799  -21.4093  -57.9260  -31.2298
 -102.8077  -95.5178    7.7245   -6.8256    5.1024   -7.5243    4.0498  -14.1122   37.6015  103.8996
  217.5831
  -42.4029   -5.3593  -23.5549    1.9858  -15.7479  -17.5222  -28.1617   36.9794   42.0918   16.0467
  -25.5303  -46.3247    6.5892  -11.8913   13.3787   -7.1410   -4.0457   -0.7066  -13.1215    4.4149
   -4.2293  772.8807
   16.9283  -51.1467   34.7047   -9.3580   12.4856   -0.6001  -11.6026  -20.3680  -57.6345  -16.3494
   -3.3838   39.8108  -12.6492   15.7719  -23.1686   -7.1237   -5.4561   15.6629    0.9244   -8.6610
    4.0378 -138.2731 1407.4342
  -10.4839    2.7231  -48.1947   22.5621    6.2665   74.4038    7.5446  -14.3205  -79.5632  -21.9758
   56.7247   37.1613   -0.5206    3.2842   -8.1477    8.7980   -2.8139   12.4502    6.3591  -24.7713
   -9.8874 -544.8679   45.3479 1423.5417
  -19.2091   -8.2338    6.1358   15.7720   16.4374   21.7040  -10.0113  -23.5139  -30.1776  -45.3892
    4.2293   40.4485    3.7382   11.9025  -22.2988   35.6313   -6.1548    1.0211    8.1541   -0.5137
    5.0069 -395.1890  291.3031  271.3095  768.8766
   11.7936  -33.3179  -21.4913   -2.1324   -5.6459  -78.9226    8.1472    7.8734   93.5048   -1.5389
  -31.3917  -18.0690   -7.2234   -5.9169   17.9941   21.7224   -7.8387  -15.1458   -2.0502   -7.5624
  -16.0249  195.3397 -367.6577 -236.1569 -205.8071 1394.4889
   20.9698   42.8943  -38.3060  -29.6901    0.2693  -30.8662   -5.9188    0.7022   88.9161   67.8084
   23.9185  -34.9616   19.0524  -10.8178   13.7209  -21.8921   15.8579  -16.9505   -2.7821   -1.6876
  -10.4988  285.2729 -480.5741 -632.7344 -494.8204  110.9120 1334.3912
   -9.0550  -50.9853   72.7882   19.5192  -13.5072  -60.6333   63.7938  -21.0899  -72.3176  -96.4851
   42.9040   83.7080  -14.3020   13.3812  -11.2313   23.5205  -16.8884   18.5697    1.3461  -34.6339
   -1.8129  -27.8200  119.8880   10.0527 -146.8419   60.3388  -86.1848  867.4631
   -7.0579  -37.6450   56.8007   -2.2611   -4.2235   48.4300   22.8351    0.8816  -67.4211  -28.6628
    1.4215   28.4856   11.9883   30.6498  -47.8661   -7.3699   -3.4964   14.4260    7.9861  -11.6287
   -0.2872   62.8267 -170.9021 -171.4487   -3.5422 -670.7227  142.8389  -73.2757 1444.9980
    0.5894   59.8716  -44.6810  -11.2472    0.1349   -9.7796   19.9564    0.5877   11.9035    5.2882
   12.5474  -31.2851   13.7464  -29.6283   23.3576    5.3920   -0.7328   -1.3739    9.5620   14.8324
    4.5317   44.8845  -82.5165   19.2843    3.7308  -25.0582 -112.0270 -425.4197 -103.3035 1148.4987
 -104.7302   44.6317  -66.3538   13.5237   30.6362   24.7372  -74.8723   -1.5974   59.2021   73.0120
  -37.5752 -110.3831   11.7095  -39.4068   37.2019   -2.7342    7.4844  -16.1706    5.2260   45.5342
    8.8591   47.7766  -76.2677  -18.5020   30.9221  -80.1709   99.0663 -451.1946 -105.6671  244.2610
  912.7216
   -7.5083 -153.9739   -3.4304  -18.1730  -14.2979   61.0522  -24.2134   33.6865  -44.5689   53.9390
  -32.8626    0.6689    6.2324   -7.3586    3.2259  -25.0991   13.3735   -7.6820   -8.7026   18.0710
   -4.0897   20.0631  -57.4497   -8.9974  -51.8048 -101.9071  162.8633 -232.7241 -292.6673  282.6674
  -20.5944 1287.1026
    8.4790   -6.7222  -47.0495   17.7565    4.3193   50.2340   15.6960    2.9653  -58.7474   -9.3742
   20.5204   32.9372    6.3877   12.0197   -3.8035    4.4643   -2.4512    0.8649    5.7382  -14.2716
   -3.6819  -11.0513   75.4426  -74.2742   24.0611  171.6274  -57.0018  284.7021  186.1743 -563.7792
 -542.0346  -42.0724 1332.4821
  -24.2751   40.7209  -28.1814   -3.9091  -31.0020   36.3039  -39.5362   16.2973   41.0214   30.0258
  -29.4643  -27.9134   12.7132   -6.0878   -4.2481   -0.0532   -3.4324   -5.2907   -4.6538   -3.0894
   -9.0026   68.5256  -77.3427  -28.7025  -60.0694   36.1059   61.7711 -105.9627   45.9414  100.6812
 -346.3501  249.5532  226.5254  826.3645
   26.2765  -73.9199  -57.1369    0.9574   23.2593  -31.0529   19.9465  -18.3595   57.2841  -25.1723
  -33.6123  -19.6706    4.3347    4.3404   -3.6297    1.9263   -2.1693    9.8402    8.0464    8.3687
   10.3244 -124.8912  -68.1066  185.1372   30.6622  -51.0793  -32.6947   46.8889  100.5682  -73.6297
  173.5782 -446.8469 -165.5480 -209.2653 1571.7996
   -4.6652  -29.3793   -4.1995    3.7043    6.4922  -26.9113    8.9276    0.5328   16.1345  -29.8571
   46.4690  -10.8340  -17.9748    2.7796   18.7124    1.0391    1.0146   18.2267   -6.1936  -10.0783
   -4.1000    6.4883  108.2914   23.7663   47.5405  -50.1855  -84.8018  152.9811    0.7347 -219.5066
  187.5530 -349.9820 -483.8622 -490.4207   79.3862 1206.2185
  -24.7356  -22.0047   27.7617   14.5606    6.1606   41.9906   36.4876  -19.5914  -67.6614  -52.1750
   -2.0332   23.4211    0.2509    7.9862   -0.4606    3.1767    7.0076   -3.6340   -0.4629    3.6559
    1.2192 -298.3592 -129.8749  264.2962  -41.6479   30.6253   69.7686   38.7391   57.3979  -32.2779
  -21.5807   46.8074  -19.1257 -183.0238   60.9023   33.8332  671.8798
    2.3983   -4.1849   43.5630   -2.1418   -4.1768    8.2992   11.6224   -6.6727  -65.7357  -49.8218
   -5.2756   23.0509    2.5110   -9.4414   -4.9328   10.3814   -3.0978   -8.8847    5.8046    5.5643
   -3.4271  -76.9233 -265.5884  200.5820   31.5569   77.1661  -15.9986   40.9889  -80.8361   31.0547
   58.0849 -169.8207 -180.5232  -58.7946 -793.5876  149.4622  -62.1317 1540.2481
    4.1356   -6.3243   -5.2546    0.9907    4.7449   -3.1981  -23.0436   23.7532   12.5446  -18.0929
   22.9912  -66.5126    2.0919  -16.8348   26.0147   20.3464    0.8743  -11.8062   -1.7426    2.5208
   -0.3040  221.3169  326.0478 -610.3998   85.4809  -49.2937 -187.5513    4.6144  -31.8064    9.7828
   41.3704  -79.5118   28.3465   31.4497  -17.0187 -178.5822 -416.7600  -73.6541 1183.6322
   -4.3371    5.8527   -4.9915   -0.7801    3.4094   -5.0177   -3.1915    2.7352   10.5883   -3.5374
    2.4814   -7.6030   -0.9837    1.6591    0.2740   -1.4794    0.8798   -1.2471   -3.8160    7.0402
    2.9742  -64.0566    9.3138   33.8122   16.6912    7.1723   -2.3507  -16.8634   -1.4859    2.4065
   -8.9057    4.8384    2.7117    1.8589   15.6814   -9.0548   23.9974  -12.1720   -4.1418  196.6196
  -24.4776   12.1959  -11.4723   15.7277   -2.6029   -1.0719    6.0193    9.2910   -3.9524  -13.7198
    6.5003    5.7605   -1.9230   -6.1675    5.1783    1.9369    0.8744   -2.1203    2.0248    5.7263
    0.8261   25.3861 -429.0433    3.4149   -1.8811  -33.6930   10.4352   -0.7873   48.3462   16.9734
    4.5459   20.4203  -17.7079   14.2291   25.2501  -18.9079  -27.8291  -11.7661   25.0029  -10.1268
  519.4745
   -4.9332    1.0442   -0.4828    0.1589   -7.3639    7.2901   -1.5101   -3.2930   -3.9277   -4.2065
    2.6801    1.6773   -2.6991   -0.6934    2.7932   -3.3825   -2.1622   -1.5803   -1.8152   -7.4716
   -7.8367  -15.7944   32.4319  -36.5313   36.8432  -37.3751  -11.1153   21.3686    3.4078  -11.2346
    0.0544   -8.7465   -7.5186  -25.9758   -4.1135    6.1919    7.5809   42.6906   -4.2401    3.8046
  -21.8402  202.2086
    3.9960   11.5523   -2.6955    1.5976    9.0252   -9.9067    9.8237    0.3275   -9.1945   10.4393
    9.0139   -2.8397    4.7861   -3.5481    4.6990   -6.1189    0.8705   -5.6830    5.2773    6.9925
   -0.1767   13.6910  -22.1201   23.5898 -139.7257  -20.1929  132.5052   16.7695  -13.9776    5.6571
   -7.2717  -15.2467  -11.4738    6.6684    6.9252  -16.9326    6.1580   -2.0864  -13.0318   -4.0222
   12.6735   -6.4749  255.4257
    1.6928    9.6870   -2.5222    0.0995   13.0215  -12.0363   -1.3143   -8.3205  -12.5069    2.9057
    7.2242   -0.3574    3.9096   -6.0664   -2.2749   -9.3313    2.9933   -1.1403    4.3911    1.4595
   -5.2876   16.7835   14.6486  -29.7645  -72.2741 -105.7468  146.4811    8.2307  -31.7379   30.7784
   19.8624   -2.1508  -30.6111  -10.5155    5.1796  -13.3993   -9.5585   -8.2443   -7.0357    3.9307
    9.6495   -5.7939   62.7184  268.6954
  -10.3384  -19.6091   -2.3369    6.7770  -22.6749   37.1574   -5.4787    2.3653  -22.5212   -3.7373
  -15.9058    0.4569   -3.9273   -1.1598    4.9033    4.8373  -10.5357    2.4086   -6.2119   -8.3940
   -2.4355   16.0481   24.8233  -18.2603  147.8141  128.1975 -312.9463    0.9684   23.9616   -7.0185
  -19.2230   -0.2804   27.9641  -10.2425  -19.1461   27.8580   -7.2446  -11.7619   47.2316   -0.9763
  -17.1652    9.8456 -119.8122 -130.3222  434.7106
    2.9229  -14.6353   12.6569   -1.0435  -10.9814    0.9528   24.1452    8.1070  -34.4752  -16.4239
   -5.1237   25.6790    7.9600   10.1969   -8.3321    4.9971    1.2298    0.4257   12.4691   -3.3805
   -7.6110  -15.2135   -0.5930   12.1626   16.4612    2.0501   -5.1558 -123.6355  115.4931  102.3392
   -0.2487    7.4210    7.7914    5.9013  -14.4016  -12.5108   10.9671  -19.2066  -15.1710    2.7840
  -10.2890   -6.9214   -0.9178   -0.3143  -12.2473  264.3705
  -14.8970   12.1467   -9.3784    4.0531    9.0442    8.8474  -39.5080  -10.9033    6.7589   28.2273
   -5.6011  -32.5767    3.8927  -18.9955    4.4723   -8.6878   -2.3691   -0.0607   -3.9208    2.1317
   -4.1473   -0.5155   21.2503    4.9996   21.3057  -32.3827  -25.0727   87.6104 -162.0370 -129.4944
   18.5775   22.8336    8.0028  -17.2711    7.6873   19.4696  -29.1489   -0.6291   31.6796   -0.6960
   20.1871    9.8439  -10.0307   -1.4314    8.4726  -81.4213  290.8858
  -14.8528   22.4378  -14.0136    6.8985    3.2172   30.1998  -35.9922   -7.9155   16.2709   34.5977
   -0.1304  -30.9510    4.1557  -13.3348   13.0708   -0.0603    0.0482    0.1156   -5.8280   -0.6151
    1.6621    0.8934   -7.6088   16.3343  -13.4340  -12.1225   28.4084   56.8205 -154.9082 -186.6684
   63.0136   25.2265  -61.1747   -0.1433   17.5029   33.7537  -12.1529    4.7644   13.7907   -5.8227
   22.7507    8.6947  -12.8009    0.0932    6.9963  -98.6263  109.9208  345.9548
   -8.8970   -6.7351    7.3352    6.9901   14.4184   -7.9886    1.0045   -4.4962  -10.2676  -18.1057
    6.4561   -7.6044    0.1402    1.6503    3.8080   17.3269    0.8888    3.6597    4.6352    4.5219
   -1.8886   -0.9261   17.5710  -10.4679    8.1448    8.8659  -33.5317   28.3359  -25.3199  -11.3611
   18.3334  -23.2795   13.0871 -128.7832  -22.8222  129.0701    7.4224   -4.6195    0.5386    1.5845
    7.7435   -1.0356    6.3285    4.0167   -4.7319    7.7640   -4.8010  -20.4464  245.3134
   -2.3124   12.2380   -1.2967    5.9206    9.9131   -8.4625  -11.7155    2.9142    7.6992    6.1341
    6.8754   -9.4238   -1.9661    2.9836    0.6688   12.6160    0.8522    5.6717    0.2078    6.2260
    3.7803   25.7903    3.4291  -25.6070  -10.0389   -3.3571   -7.9504  -24.4202  -16.8851    1.1659
   26.6447   48.9515  -27.3861  -64.3614 -128.1872  151.6879   -8.1701  -34.3219   18.4395   -2.6795
   32.7510   -7.2129    6.6595    7.6414   -8.9417    9.8010   -4.0333   -8.3026   48.5061  279.0054
   -4.5403  -14.8012    1.9327   -4.1397  -20.3639   34.1268    6.1446    1.0915  -12.5258    0.4044
  -12.2251   11.7569    2.1911   -4.8890    4.6400  -12.8130    0.9675   -6.8372   -3.9974   -6.7642
    3.0082  -16.7343  -36.2559   12.7063  -11.5229  -14.7894   38.3468  -12.4446    5.2642   47.8447
    8.7175    4.4616  -41.5918  126.0498  136.3387 -276.3326   12.7980   17.0005    5.8891    1.2542
  -22.8680    3.9701    0.4236   -9.2039   12.2922  -17.4070    7.9067   32.9660  -95.4469 -119.7540
  395.4549
    8.4912    3.1057   -7.3334  -10.9195    2.2185  -26.2318  -14.3303    7.9179   35.1924    5.8663
   -0.7955  -34.0659   -1.9006   -2.6060    8.2054    4.2827    0.7667   -1.4861   -1.7987   12.0757
    0.7373   18.9348    7.7095    5.3688   15.9046  -13.7998  -17.0413  -16.6440  -39.1685   -1.7119
   29.5274    2.6990   -2.1574    8.1965   21.6568    2.7328 -146.4473   90.4696  124.1438   -2.6351
   -6.8314    0.7803    5.8589    6.3137  -18.2141    3.8490    7.4427   -0.4817    7.0230   -0.3942
  -19.0877  274.8438
  -13.0510    8.5032   -0.2498    1.9570    4.8659   10.1886   -2.5934   -3.3632   -1.0732    8.1853
   -2.8540   17.1155    0.3215    1.5588   -7.5300   -7.3403   -1.4043    3.7499   -4.0312   -2.0098
    3.1078    0.2965   -7.6416    8.0465  -36.9004    4.3917   45.2710  -21.9081   34.8992   25.8813
  -37.3311   41.7573   33.9427   60.3443  -53.2916  -53.2568  104.0446 -163.9694 -160.0027   -4.5412
    8.7814   -4.9882    2.7320    4.8080    2.2969    3.5897   -9.3492    1.9456  -16.5048    1.9498
   12.1416  -89.6519  308.6836
  -18.9237    7.5800    1.5697   -2.2655   -2.8100   17.3198    8.0508   -8.3539   -7.5408    5.1390
   -2.2532   28.5293   -6.7725    3.3593   -1.8470  -17.7465   -3.2278    1.3128   -6.6407   -9.6758
   -5.3894   31.2852   -7.7816  -45.9961  -24.8434   20.1406   68.2139   15.6995   35.2744   11.1332
  -29.4994   19.6532   24.3119    3.5737  -32.5915    9.8534  134.1336 -160.9636 -283.0394   -3.0572
  -10.8791   -5.1638   -8.4853   -6.2300   24.8068    1.5961   -2.0303    6.9901  -10.5882    1.2940
    3.6654 -115.6208  139.2261  393.8034
  -42.8114   11.2059    9.0128   20.6993  -14.5292   -9.7870  -29.1467   -5.8901   15.4453  -20.4536
   -3.4100  -22.0488  -16.3691  -11.0270   25.7706    4.5387    6.4376  -12.5579    0.4365    1.8797
    0.7854    5.4314  -33.8842  -48.6388  -26.9839   40.7001   14.9108   11.2049   12.0590  -12.2013
  -22.1257   -7.1396   39.8497   13.3245  -16.2867  -32.5441  -22.9002  -16.1110   57.6689  -10.6228
   26.3094   -6.0765   -1.7806   -2.5180   10.1705    3.6696   -5.1890    1.3257  -14.5848   -6.9790
   15.6380  -11.0285   -1.2869  -10.2852 1406.0148
    9.5658  -16.9688  -21.1047   18.8890   16.9030   24.8830  -31.5124  -12.9234  -17.0818   12.0134
    9.7941    2.3050    1.1948   -5.8225   -7.3051  -12.2039   10.8029    2.3344    5.2777   11.5223
   15.7852   19.0680   -3.3706   32.5751   11.0340   -7.8770   -8.8483   18.3990   10.6816  -47.1454
   -6.2607  -17.1229   -2.8028    8.7840   28.5213   20.6583   14.8781  -39.5946   13.1106    5.3592
   15.9473    4.9295   -5.2049  -14.4996    4.8183   -6.7433   -1.8428   10.5449   -4.4422   -0.7230
   10.5098    2.8725    4.8956    5.6012    8.5943 1447.7182
   -1.5720   12.2948  -25.3063    1.0356  -16.4337   16.2039   10.1037  -12.6299  -23.7657   22.2094
   27.8165   25.3585    1.8533   -7.6685    4.8549  -22.6986   -4.6835    6.4056    0.5471  -15.4926
   -4.3307   -9.4718    0.2961   26.4761   11.3222   10.2207  -15.4322   37.4889   16.1007  -23.0432
  -21.2901   -7.1782   -4.4777  -15.0339   13.5148    7.6429   21.7863   -6.0473  -22.1429    0.0813
    4.5645  -10.0242   -6.1256  -16.1237    7.6875    3.0523  -13.9919   -6.7941    1.9947    1.0623
   11.8343   -2.0129    7.1359    2.9787  -92.2930  670.0083 1014.1553
  -17.0632    4.0872   -2.9907   14.5365   14.7750   -7.1081  -23.1920   -9.9959   -9.9978   19.6450
    6.3134   14.8921   10.0809    8.8278  -12.8491   -4.9453   -4.3311    8.1983   -0.6501    0.0763
   -3.2926   11.7641   22.3705  -44.1743  -24.3765  -20.2304   33.6661   -8.9546   32.8660  -13.8426
  -24.2724   20.2325   31.2453   -0.0219  -22.2291  -23.6092  -17.5663  -25.8466    9.4055   -4.3571
  -12.1930    2.9398    0.3515    3.0709    2.5128   -4.3824   -8.2313   -2.3173   -5.4442   -0.3468
   -3.0945   -6.9706    6.4082   10.1365 -314.9139 -201.3186 -112.7986 1431.2687
   -9.4340  -30.0763  -30.6867    2.9568   11.8154   52.3266    1.9622   13.5202  -65.9467   23.9153
  -13.1684   -1.3254   15.7478   -5.2119   -4.3435    1.3594   -4.2277    2.2852    4.6509    5.5257
   -0.5699   10.2288  -59.1724   26.3274    5.4425  -32.1352   -5.4597  -16.8945   -2.4170   41.3400
   39.0002    4.2955  -52.4626   13.7914   -5.8085  -26.1808   36.3932   46.2144  -48.7856    6.5422
    4.6138   -1.8819    5.4441   -1.8516   -3.3893   -6.0199   -1.0116    1.2173   -1.3453   -8.9804
   17.4999    4.9129    3.0720    6.2283 -413.3670 -684.1609 -272.1887  103.7253 1309.3480
   12.1511  -13.9781  -42.8808   -2.0835   14.7151   18.9958   13.5868   17.2566  -21.7400   32.2498
  -20.8997   17.7821    4.6940   17.9984  -26.0098  -22.2117   -3.8318    3.8335   -6.3761    1.1925
   -2.3487   17.3876    2.3465  -27.5741   -4.4397  -13.3977  -22.8745   -6.1653    6.1844  -10.9909
    6.8588  -18.2731   -0.6754    1.5714    6.5771   -9.0602   14.6627  -27.2550   15.9306   -5.3122
    3.8435    0.1317    2.1843    1.3557    1.9165   -3.2795    7.8843    3.6757    5.2736    0.5899
   -0.4899   -6.7250    6.7249   11.8994 -221.6332 -305.6380 -392.0506   10.0059  534.7115  872.1428
  -56.1347   17.7449   27.4355   13.3922  -14.6988  -56.7468   32.5320  -19.8380   16.3511  -57.8015
  -18.0163   85.3402  -16.3235   33.9066  -34.4659   42.2418   -5.3614   -5.8074    7.6784   -7.2763
   -8.5464  -53.1939    8.3724   69.1532   21.7636  -33.7927  -22.3359   54.1922   18.5030  -39.7642
  -41.5559  -12.1663  -11.1454  -18.6981  -18.2274   18.4534   41.8083   22.3280  -32.4765    4.4198
   10.6199  -12.9342    7.9273   -5.1041  -14.3993    5.1506  -11.9621   -0.9828  -13.7488   -5.8838
   17.1316  -12.0612    8.6294   -4.6588 -173.8826 -210.1567 -123.4189 -687.0367  147.5877   87.3204
 1480.9798
   32.7531  -24.7122  -19.8932  -42.7163   26.2418   14.6165   12.7981   -2.7208   12.9866   12.9220
    4.7097  -34.9608   14.5698  -16.1231    5.0457  -15.7676    0.1787   10.1718    5.9780    7.2550
    2.3314   -1.1961   28.3467   20.3440    7.7997  -25.2354  -19.7363  -22.8549  -49.8036   13.3625
   35.5436   10.9932  -32.4554  -19.6106   -2.0173    3.2325   10.0443  -26.4831   -8.6512    7.7093
   -9.1499   -3.3316   12.2893    1.9962  -17.4978   -4.7781    3.3889    5.7032   10.5652   11.5902
  -17.0657    2.8518    4.6371    2.6734  -80.0925   37.6961  -12.5028  -60.1870 -121.4085   -6.4370
  -76.1180 1122.5420
   22.4192    8.4629  -51.4402  -26.6780   28.6035   50.0165  -17.6535  -12.0675   18.7435   68.6555
    3.2029  -68.6161    9.0093  -28.0776   24.6523  -28.1760   11.0423  -14.6664   -3.8531    7.2550
  -12.0648   51.2627   -6.8140  -16.4486  -23.5657    5.6059   13.9315 -119.2781  -72.0987   36.9456
  121.2350   23.1222  -60.8476    9.5841   20.5864    0.7107  -55.7551  -20.3548   10.2531    2.2480
   -9.5294    5.5692   -1.4122    9.4303  -12.3809  -15.8432   34.2413   34.0727    3.3496    8.3907
  -20.1911   12.7491   -8.7010   -4.1541  -31.4733   30.1061   25.5315   -2.2607  -14.3325 -159.3627
 -198.6762  522.2155  947.4222
 -213.7312   -5.1927   15.5917    0.9660   19.1666   33.3477   20.4643   -1.3320  -30.9059  -14.3197
    6.1989  -12.3013   25.1822    5.6733  -29.9685   16.6827   -8.0568   12.8267   10.7601    1.8369
   -0.6126   -8.9746  -10.3608   22.8873   34.2323  -20.7658  -33.1051  -41.0124    4.4289   45.6143
   27.7979  -27.3375  -15.3429   -4.9791    8.6540  -11.5222  -31.4965   23.8224    1.2746   12.4356
   15.5818    4.2407    1.6630    2.1189  -14.0661   13.5234  -14.2689   -9.7795   12.7882   14.8259
  -21.1494   17.8242   -9.8186  -15.7884  -30.9455  -19.7088   23.1252  -89.1204  109.8029   99.9037
 -335.2420  304.8438  225.6050 1251.5861
  -10.6118  -92.7640   15.2739   27.8501   -0.8836  -26.4744   26.1560   -7.7668  -42.8176  -44.5916
   -5.8378   22.7471   -6.5830   17.2869   -2.9237   -6.9688    0.6689   19.5750   -2.2687    3.5199
   11.6012   22.1106  -23.9900  -10.1454  -34.1289   13.7276   -3.2136   83.6290  -12.1416  -14.6886
  -30.9115  -29.5878   15.8861  -44.0078    7.2600   32.9854   18.8682   35.2691  -20.1165   -9.2110
    5.6535   12.7574    4.6130    8.5156    7.7064    3.1999   -7.2964  -14.2597   15.1657   -9.4732
   -1.4309   -0.3054  -19.5568    4.3273  -17.7114 -134.0462  -39.5138  236.0647   33.3897   -3.3056
  191.5331 -589.8225 -355.9371   31.7122 1440.7351
   11.5367   10.6565  -70.7924   34.4250  -26.1152  -38.3850   39.1769   -0.5533  -25.5634  -22.7464
   -9.1674   40.0220   -1.5681   18.4429  -14.0831  -10.4660   -0.6659   14.5869    2.3266    0.4532
    5.1344   -3.4450   20.5404    0.4394  -24.9485   -4.8695  -25.2222   98.7102    6.1262  -31.5969
  -65.0399  -34.1290   26.5017  -50.3772   15.1668   34.8485   25.5421   22.9842    0.6367  -10.5620
   -8.9068   15.4416   -0.0383    4.4749   13.3433   -2.1975   -9.8826  -23.3141    9.2446  -16.2176
    2.4591    4.7003  -24.8850    2.3921    6.8420  -24.0678   27.2022  139.6373  -59.9442  -23.5637
  183.5844 -295.6733 -505.8980 -102.9091  668.0133 1046.0100
  -44.6369  -17.7016  -11.6679    2.7434   30.1328    9.6215  -52.6172    5.2593    6.0710   22.9673
   -4.8713  -31.3109  -12.5874  -24.3508   29.5502   -4.3247    7.0234  -19.5051  -10.1428   13.1105
   -1.0704  -10.5768   -6.2204   24.9308    4.4011   10.5804  -27.2620  -62.4279  -14.6540   41.2245
   44.3607   -8.5078  -19.5494    2.1615   43.7684    2.7135  -24.9704   -5.7996  -24.6817   -2.9472
   -5.8063   -4.0033   -6.9716   -1.3124    2.6701    1.6783   12.4128    3.6085   -4.3670   -5.8944
   -1.6971    1.8425   -1.3719   -1.4724  -89.3875  218.1104  129.0615  -94.9042  -54.1993  -34.4976
  101.1982  -36.6003    6.8227 -380.6348 -194.1454 -109.9044 1461.1849
  -15.9142  -54.3519    0.2169    2.8165    0.1148   15.0437   -5.1459    5.8920   12.6130   11.1728
  -20.7159    9.0524  -20.9385    3.6821    0.7639   13.1230    1.1734  -17.8366   -8.2627  -15.6690
   -9.1614   22.5514  -16.6438   -7.0038   20.6787    2.4016    6.2234    0.7912   -4.2647  -17.0409
   25.2172  -11.4724    6.4249   31.7652   13.4531    8.3552   -4.9244   -4.8448   27.4579   -0.8813
    6.9803    2.2191   -3.4734   -1.5451    1.4333    1.9130    8.1060    9.3944   -0.4134  -18.2065
   16.5155    7.4912   -5.6357    1.5991   53.3958   85.5176  -18.9344  -87.9228   -8.7736  -22.6190
   -5.0648 -188.4422  -82.3649 -289.0259 -602.0293 -233.5299   89.1247 1131.4864
   -8.5272   -0.0135  -19.9009  -13.4889  -24.0309   27.2442   25.1343   23.6815  -29.4260   20.9432
    2.1644  -14.2189   11.3032  -15.1197   19.4363    2.0079   -3.4719    1.7496    2.7785   -2.5224
    4.2550    3.8650    2.4627    0.2057    7.1828   13.8308  -36.4600   23.8791  -14.7003  -25.9569
  -39.8327    3.2816   15.0264   40.5706  -31.3466  -16.0780    7.1079   12.6672   -6.8974   -2.5741
   -2.6933   -2.0226   -9.2320   -7.1259   10.1198   -5.3150    2.8332   -4.2953   -5.1455  -10.5688
    8.8840   -3.1082    6.1050    8.5042   53.9425    3.9182  -44.9993  -43.3965    6.8628  -19.0901
   13.2240  -81.2862  -62.8803 -212.4527 -283.9146 -370.8428  -33.6038  477.3511  921.5494
  -43.7048    6.5801   24.6550   19.3721  -11.4302   26.9999   13.4875    9.7089  -52.1050  -31.5274
    4.9325   -3.5819   17.7066   -2.1014   -2.2014   12.6486   -4.5637    7.3799   -3.0792  -10.1051
   -4.2503   46.2694   14.9783  -45.3472  -47.0154    3.1616   37.0121   18.4075  -27.9737  -31.3023
  -49.2464   41.1482   28.5505    7.4958  -48.6769   23.7421  -12.0165   -7.9492   18.1137   -2.3821
  -13.5006    9.3996   -0.4823    7.5216  -16.0616   -3.6419    2.7329   -6.2492    2.7185    1.5401
  -21.6303   -0.9419   -8.0371    2.8621 -317.0106  202.8338  172.1038   80.9024   52.5657   38.2163
  -47.0217   29.1873    6.8143 -161.0186 -211.8365 -110.7714 -711.5915  135.6553  141.5693 1458.1226
    5.6526  -29.8581    8.7259   21.4072  -13.0735  -57.2193  -18.9301  -26.8891  102.0707   -2.9256
  -39.3622  -33.0710  -17.8738    4.9784   12.0279    7.2467    7.4509   -6.0015    2.4848   10.9772
    3.1671   15.4523   20.4065  -31.5289   14.4452   11.2190   11.3205  -19.8363  -41.8777    3.1639
   13.3949   38.9278    7.6936   31.9680  -53.8448  -12.3631    5.3082  -36.9608   21.8055   -1.5746
   -1.8424   -3.1374   -1.4867    2.8454    8.5473    3.0240    8.8653   16.7039    1.0374    9.1089
   -4.9244   -6.8772   15.1528   14.6482  436.8045 -659.7875 -334.9079  -58.7203 -211.3323  -89.3281
    5.3736  -11.5621  -21.4484 -113.8119   25.4297  -32.5450  -81.5872 -187.2002  -20.4997  -86.5589
 1255.3378
    7.1433   -7.1757  -46.7344   14.2921   16.1693  -24.4957  -22.6024  -20.5682   47.0077   66.7120
    5.1963  -47.6905    0.9036  -19.1587   25.2223  -29.0946   -1.0154   -8.0395    3.3006   16.0509
    6.1329   -8.4555  -18.7914    0.1779    4.6379   13.6160    5.9126  -73.3938   -7.5906   26.3160
   65.5343   23.8411  -38.3626   33.3746  -23.4143  -35.0606   -4.9212  -22.5151  -14.8785    5.3968
   -3.4887  -10.2961    3.2558   -7.6643    0.8661    7.9482   -6.0639   14.2749   -9.2661    7.6904
   -0.6858   -3.9527   10.5199   -7.2016  268.1306 -308.3411 -490.6049  -31.1033  -96.0393  -71.5745
    0.9838  -30.7227   -8.0188  -66.5087   12.7129   16.4128   40.1197  -44.3560 -180.5476 -193.2208
  547.5809  921.8337
   30.7557   -1.7730  -13.9936   -3.1516    2.9519   17.2540    3.3291  -14.9368    8.2670   13.3098
   -5.6476  -40.0846    4.5327  -11.8179   12.6773    1.3101   -4.3916   -4.1169    0.0714    3.3170
   -1.3743   -3.6112   17.9887   23.7150   16.5519   -2.0432   -9.2387  -20.3662  -43.2711   26.6361
   44.4774   -2.5353  -37.2133  -19.2823   15.4016   30.8961   -0.7340    5.0958  -25.6680    7.7719
  -15.8276   -3.7722    5.0440    0.2622  -11.5188   -3.5295    4.3898    3.0036   13.0443   13.5382
  -18.9419   13.3562   -2.1048   -4.0313 -444.2037   21.7096   54.3690  -57.2034  -26.7664  -36.5315
   32.0676    2.4648   24.3924   40.9772    3.5147   -8.9536   62.1260    1.5140  -27.1101  -43.2450
   -5.8793   12.3449  550.7062
   -2.8028   -3.8214    3.5214   -6.8504    5.4146    3.7127   -3.2771   -0.1957    5.4153    8.7706
   -3.8657  -13.5358   -1.1058   -4.7457    4.2907    1.0865    4.3213   -0.2314    1.9747   -0.7166
   -0.1984   13.5850    1.8970   -7.3312   -1.2209    0.8603   -7.6849   -8.7248  -16.1602    0.9533
   16.5945   -0.6791   -7.3942   -7.5033    7.6376   18.5630   -5.6118    6.0033    8.3595   -0.5601
    2.5916    4.8612   -7.2342    2.7800    0.1583  -11.0689   10.0451    0.2819    6.6815    2.4716
   -3.7773    9.3581   -2.1684    6.2435  -18.4954  -38.5699    9.7648  -29.8005    6.5483   -8.7654
    2.3536    0.1955    7.1961    5.5939   -3.3218   -5.8165  -11.1159   -4.9590   -6.6899   34.8600
  -13.0506  -19.8391   17.4254  199.3355
    1.1387    2.5729   -0.6495    0.7872   -3.9320    0.7690    4.6589   -0.7199  -12.0830    1.0346
   -6.6558    5.6483   -2.3636    4.8217    2.3716  -16.6888   -2.2656    0.7540   -6.5550    3.1281
   -4.4217    2.2170    1.0499  -10.0685   -2.1587   -0.1672   -8.1257   -1.1261   -2.1665   -5.2115
   -5.1303    1.4629    4.3091    1.4782    6.8290    3.8277    1.0743    0.5674   -1.1502   -6.3704
   -2.9757   -0.3639   -3.6498   -0.6576    6.5196    3.6575    6.0297    6.4062   -0.2307   -1.0921
    0.7087   -7.4961   -0.9009   -1.4705   19.0111  -23.2202  -80.9184   -1.6663   21.4378   26.3348
    8.8575    8.2038   -1.2717  -14.8110   -5.4146   -7.6083   -7.0866   -3.3434    6.1272   35.9070
   -0.2762    7.7195  -38.3595    4.8722  201.1315
    8.6174  -15.0460  -18.6656    0.0273   -4.7093   25.0175   10.1918    2.1972  -17.1118    5.2547
  -14.8037  -20.3406    2.1908   -4.5709    8.7554   -6.3317   -0.6633   -3.2170    2.5194   -2.7260
   -9.6170   14.7749   -2.5785   -6.1205   -8.3223    5.0807   -5.3550  -11.0011  -19.3672   17.3172
   21.1055   -3.3248  -15.6291  -11.2815   12.0737   11.3841   -0.6341   14.2345   -7.4302   -0.1185
   -8.7246   -4.3611    2.6868   -0.6052   -6.3024   -1.8752    0.2786   -1.8802    7.7584    6.5254
   -4.6869    9.9805   -2.0304   -4.2821   -7.5821  -36.3870  -32.1812 -121.7031  161.1638  102.9251
  -37.1188   37.2921   40.0869   31.0040  -35.2198  -27.0747    2.5048   -2.2499    3.4102    8.0648
  -36.2940  -11.6621   14.2341    0.5601   -5.6087  271.3425
   -7.4674   11.1914   34.1783  -13.0736   12.2034  -29.6424   -5.8947  -18.7366    9.1088    2.6707
    5.2514   18.4420    1.8010    1.8617   -5.6551    7.5738   -4.0460    2.6492    1.0652   -3.3798
   -0.8945   -8.0522   20.2403  -19.0658   12.6518  -12.3207   -2.7794   -3.6989    5.0953  -19.6768
  -17.4114    5.5089   21.6341   -8.6282   -1.6825   16.4911   -5.1740  -18.4148   17.1590    3.3201
    4.0838    5.9234   -9.2793    2.4833    3.4988   -5.9456    7.3310    3.6566    2.2208    3.2683
  -11.7495   -0.7332    0.6362    5.9974   40.6137   -4.7384  -26.4081  154.7488 -289.4874 -150.3337
   -7.0609   -8.6323   -5.1657  -43.5921   47.9088   20.2767  -11.7323  -14.0891  -10.0895  -23.8741
  102.2948   36.2321  -14.7638    4.5223   14.9797 -109.2792  378.3601
   -7.6427    3.9453   19.2646    7.8740    2.8534    0.3221  -20.2682   -6.2673    8.4040   -8.8312
    3.7894    2.0854  -11.6890    9.9155   -0.7378    1.0160    1.8730   -6.2109   -9.4008   10.4160
    1.1557  -11.3958    8.8381   -2.7915    4.6031    1.9981    2.1565   -8.0012   15.1646  -15.9987
  -11.2441    8.0199    8.5888    3.7900    2.4214    6.3184   -9.2822    3.4812   -9.4520   -8.8103
   -7.5352    4.2924  -14.6079   -0.9436   12.4907    1.8389    9.0208    6.8807   -8.9476   -8.9875
    4.5752  -15.5315   -0.8050    4.3202   10.2834   -2.3387    2.4727   91.1625 -162.9562 -223.7724
   35.9638   10.0952   -5.1487    4.9725    7.1302   10.9905  -31.3193    4.1771    0.8482   -5.6017
   -1.7990   16.3641  -23.0578    4.9776   -2.5374 -106.5582  167.5798  356.9414
    9.0314   -5.3353   11.4983    8.0172  -10.5619    6.5687   -1.8221   -1.5548   -7.3083  -13.0504
   -3.5315    8.8012   -0.7036    5.4428   -2.0638    4.7344   -6.1857   -1.9427    1.7707   -5.9837
   -8.2475   -3.4001    2.2825  -12.4297   10.4411   -6.1011   -4.3114    3.2652   21.3481   -0.9096
  -22.1762    0.9262   13.1176    1.3995   10.6703    7.1549   -2.9282    3.2748   -1.5432    0.1194
   -2.4066   -1.8439  -10.6164   -4.4363    4.9446   -1.3886   -1.5484   -0.7462    1.8575    3.7611
   -3.1837    2.6818    1.5179   -0.1622   35.3011   37.4419   13.1467  -44.2863  -38.6760  -13.6604
 -142.9659 -159.3053 -116.9591    5.7048   37.0887   11.9568  -12.4712   13.2911    4.8863    6.5841
   18.9741   21.2743   22.8648    3.7148   -1.9031   -5.4852    7.4897    3.9040  294.5333
   12.7938    2.6757   11.1065    9.7454   -7.1946    9.8617   -9.4666    3.4394   -7.1616  -13.0458
    7.7568   24.6068    6.3055   -2.6804   -0.2609    4.3792   -9.3079    4.6067   -0.1919    0.5388
    7.0685  -12.1821  -14.7382   -0.8518   14.7882  -10.0495   15.4837    3.2005   39.7920   -6.1343
  -19.3516    6.0690   17.5750   19.3750   -4.3277   -9.7768    6.4752   -5.8637   -1.9638    4.8661
    2.2444   -1.5833   -6.3907   -4.3963    0.7239    5.9907   -2.7309    3.5782   -0.4269    2.0504
   -2.3077   -1.9170    1.6317   -3.4414   61.0154   22.0946   17.3434  -19.4399  -18.7802    3.6975
 -134.5182 -222.0797 -114.3099  -24.8129  -23.8539  -37.5925    2.5854   70.8919   10.1487   -9.4271
   36.4587   28.3351    4.2108    8.9470    1.7384    0.5581    1.8553   18.2498  117.0552  330.0566
   16.2246   -0.0245   -0.3805   11.7705   -3.6377    1.1282  -14.3705    7.6462   12.0127   -6.7959
    4.9232   10.2770   -1.4453    8.0800  -14.9497    3.2681   -0.1736   -6.0697   -2.8211    2.7811
   -2.4331  -11.5845   -8.9278    3.0037   12.7061    4.1076   -2.9646   -6.9137   31.7974  -11.5749
  -23.4195    5.4244   11.8587   20.7797  -15.7652  -13.1284   -3.2572   -1.8042    3.9905   -6.0328
    0.9778   -0.1467  -12.7232   -9.3249   16.1164    1.4545   -3.6393   -0.7187  -11.6201   -4.2817
    7.3171   -6.4547    3.1594    7.0823    4.5936   11.1616    8.7604  -31.3229    4.6471    9.6960
  -50.8146 -116.4599 -139.5301  -28.6457  -33.5927  -14.3049   -9.3119   14.6806   13.9407   24.8207
    9.5120   13.7365    4.4395   -0.2143   -1.1183  -11.1146   16.8287    3.2257   84.8110  109.4952
  266.3820
   12.5219  -12.9144  -11.3725    9.0552   -6.5431   -0.7007    1.0216   -0.8124   10.7282    3.3700
    3.4767   -4.3187    5.8059   -4.1160    2.5398    7.3884   -2.5443   -2.6582    3.9739    2.0879
    4.2591   -3.3451  -10.8106   11.0082    6.4242  -12.2527    6.5498    2.9851   13.8164  -14.5214
   -5.9916   10.3688   -0.7182   12.8734  -16.8213  -16.2805    7.7248   -8.5223   -2.5182    4.1804
    1.2566   -1.3192    1.1367   -5.5792    2.6159   -1.3577   -3.8806    7.2363   -5.7295   -3.7340
    3.3031    0.3176    0.1410   -1.8891   50.0051  -33.2673  -30.4001   -4.5057  -12.1738  -11.2861
  -10.7185  -29.6342   -8.1506   20.4189  -36.5332  -24.6484 -144.2313  152.6560  124.4920  -29.2703
   51.8716   42.5665   12.2596   -7.9784   -1.8623    4.3490   -9.8933    7.8893    7.9308    7.6869
    7.2107  290.5358
  -16.3949   18.1858   18.3744   -5.2591    7.9096   10.2767  -10.0619    1.3618  -11.6241  -24.0278
    0.8947   15.8868  -12.1312    9.1363   -5.3161   -1.0624    4.1011    2.8169   -8.7325    7.1926
    8.3289  -16.6178    4.3597    9.7704   -0.1406   -3.0761    1.4418   10.6625    1.2256   13.4942
  -23.3786    2.8311    8.2249   10.7163   -8.3900   -4.8475   -4.1632   -4.4013    1.9632   -3.8758
    5.5041   -2.0225    0.9552    6.0857  -11.2840   12.2280   -4.9501   -7.8717   -2.4126   -1.1762
   -3.1682  -10.3872   -0.8810   -2.1819  -49.6345   15.1422   30.4143  -13.4760    6.1565    9.3639
   11.1827   79.1456   10.3490   18.3518  -23.1712  -35.5232  137.9125 -237.0213 -135.0020  -10.2487
  -15.1641  -12.2717   -6.8644    4.0641   -0.2687   -3.5659   10.5313  -17.7235   -1.5337   -2.6648
    1.4983 -106.3429  326.8153
  -21.4982   13.5014   26.0532    1.1379   -1.1264   29.4950   -2.5638    4.3167  -38.3139   -9.8376
    7.4753   15.1751    4.7493   -1.9809    1.8006    8.6433   -6.7916    5.3559   -1.0702  -12.3531
    2.1939  -16.3385   17.5500    8.8566   -0.5282    2.9761  -12.9660   11.1358   -8.6655    8.1797
   -3.6611  -11.7988   -9.3403  -13.0259   19.0799    3.3561    3.7483    3.8074   -4.1217    1.1850
   -0.1418    2.2975   -3.5353    3.1189   -1.3639   -2.3639    0.4184   -6.6453   -5.5664   -7.6817
    9.5460   -4.9112    3.1246    7.6964   -5.0170   16.4001   34.6198  -48.3722   -0.1667   25.2651
   -4.8009    2.7361   18.0214   40.9889  -18.5861   -0.4565  107.9297 -134.4720 -224.3786   -2.7621
    0.5442   -5.0587   -2.2902   15.0479    7.4909    7.1724   -4.3818    0.5552   17.7223   11.4677
   13.5911 -110.6392  135.5935  354.2748
   12.8209   10.9987   -1.3385   -2.7146    0.9668   30.8720    6.8900    8.0507  -17.4249   -6.4569
    5.3219   10.4852    4.4216    1.5752   -3.9948    0.7366   -2.3196   -2.4927   -3.1554    0.6990
    4.2617  -10.0740  -11.7352   11.8712   -6.2653   -7.8044   11.9098    8.5932   22.7001   -1.1000
  -11.8864    5.2119    0.3017    7.2539   -4.1255  -13.6178    1.9883    0.9261   -3.9222    0.5183
    0.4060   -1.5811    0.6244   -2.4020   -1.6607    0.5786   -4.6303   -1.0473   -9.3373   -5.8686
    6.0889   -4.9247   -0.9427   -1.1373   -2.6194   20.2883   16.8063    5.5529   12.9917    9.2656
    8.3492   11.2869   12.5771   29.9813   25.6648   20.4860  -47.7274  -22.8860  -16.0161 -154.1516
 -153.3216 -106.2540   13.0952    7.9447   -3.4838   14.9174  -11.0158    5.8936    8.4335   -2.6973
    3.9825   -3.5671    2.9955   -0.1147  298.9511
    5.1867    4.6587    4.8997  -19.3292    0.8685   26.1977   12.9273    9.9237  -14.0937  -14.4114
    0.1902   19.0096   -9.3597    8.9640   -7.7815   -6.0876    5.6607    0.8080   -3.3173   -4.1890
   -1.4063   -5.7844   -7.2875    2.1715   -0.2728   -3.5614   -0.9619   14.2101   20.6463    4.7197
   -7.9836   -6.3752    0.3656   -6.2595   10.7170   15.0254    0.0690   21.1505    0.8921   -6.4054
    4.7152   -0.3398   -4.9314    3.2952   -0.9317   -0.5545    0.5355   -8.3091    4.7377    0.8747
    1.3860    2.2911   -2.2198    2.5737  -62.9797   -9.9673  -30.3180   21.6291   97.0490   18.7103
   -3.9530   18.8258    7.9856   56.3497   19.7221    4.5649  -20.8822  -14.2892   16.0840 -129.4636
 -307.4960 -135.7852   12.8893   -3.1797   -2.6035    7.9997   -7.2553   -1.9547   -2.7796   15.1307
   -5.0387   -6.2972    6.6362   30.4926  144.1843  368.0234
   10.0608   -3.6655   13.5749  -15.9891  -14.4002   18.2825   29.1490   12.0741  -39.0083  -19.1146
   -1.5161   35.9078    6.2722    5.8678   -6.2222    0.8040  -11.8526    9.1028    1.4897  -16.4130
  -10.1951  -19.2663   22.0418    5.3915    4.1017  -10.8450  -18.6655   45.8250    0.4360  -12.2239
  -30.9536  -16.9294   10.1884  -21.2407   20.0404    8.3402   10.3973   19.5955   -0.4153   -0.3423
   -7.1598   -0.6288   -1.3065   -0.1843   -1.8499   -3.7628   -4.1393   -8.6832   -1.8902   -9.8154
    9.5148   -0.9363   -4.4244   -0.4066  -34.4242   -0.1274    5.2660   12.3882   -0.1920   18.0907
   11.5348   15.0773   -2.5671    7.1247    5.4455   19.7768  -46.7229   14.8440   21.0368  -60.4632
 -141.7853 -171.4478   12.0608   17.8910   -3.5115    6.2459    6.8610   14.0486    3.8223   -9.5706
    1.3730  -16.2183   20.3069    9.1244   89.9840  138.5701  293.1443
  -45.1046   -0.8679   14.9985  -28.8168    2.9813    2.0009   10.1261    9.2453    0.6677   -6.2452
    7.2066  -12.7808    2.9233  -15.3552   10.5556    2.7603   -2.2193   -7.5399    3.7458    6.3722
   -5.0449  -29.9315   17.1720   50.9774   55.5405  -24.8989  -34.4957   12.2294  -13.3370   -4.1849
   16.5646   -9.7374  -15.6002  -11.7011   13.6044   47.2365   -2.5994   13.6800  -31.8904   -1.1687
   -2.1256   12.3759  -15.5762   -9.1874   17.7086  -13.5641   11.6561   12.3575    3.1499    0.6711
   -5.6241   -2.8462   -0.4268   12.8970  -48.8563  -17.8704   16.1931  -10.8006   11.1861  -10.0962
   10.8714  -23.5681    2.4411    4.7612   -6.7738   14.5952   25.9042   -4.0165  -36.1089  -24.1777
  -49.8758  -19.8237   23.4930    2.5221   -7.6168    1.7004    2.4345  -10.4675    6.7670   19.0707
    4.4838  -13.8605   14.2202   22.9601   14.0648   28.6745   20.6613  906.1971
   25.3957  -36.5859    7.6516    8.9631  -24.4154   -6.8883  -13.2541    5.2062   39.7176    9.6523
  -39.5471   -4.5734    0.8629    5.9219   -0.6370   -9.0828    3.6592  -10.1151    1.3756   13.3698
    7.7286    1.7619  -29.4471   60.9685  -18.6280  -52.3773   17.5548    5.8445    2.5499  -17.3212
   -0.8274   24.4223  -21.2918   -4.2256  -26.6525   19.1877   14.9530   21.8491  -77.2005   -5.1317
   14.7075   -2.6159    9.6769   14.3353  -15.7009   -6.8330   13.3673    5.8429   -3.0491   -1.0610
    2.0426   -2.7012    9.6220   23.1177  -15.0590    7.9705    0.0045   -3.1472   -9.9726  -10.4625
   -0.6518   -8.7229   -6.5803  -13.9466  -41.2125    0.0442   17.4667   27.7271    5.2131    6.0995
  -20.1166   -3.6602    9.2245   -2.5082   10.3755   -1.1154    3.1414    9.5920    0.7927    3.5260
    0.4371    4.3440  -14.3932   -9.1693   -3.4146   -7.1432   -8.4245  -43.0888 1248.1115
   -6.8799    1.4608  -13.5895  -19.7482   44.9963   -4.1797  -33.3413  -26.1700    4.2142   46.2409
  -29.1943  -60.6315    7.3667  -27.2814   11.0570  -11.7607   -3.5097   -5.9062    1.6134   41.9262
   10.9523    0.1770  -31.6782   38.8988  -29.7654    2.8439   26.8364  -20.2778  -15.0352   17.1008
   36.7686  -10.1708  -26.6935    1.1237    6.6309   34.1185   10.0039  -11.7004  -52.6668   -2.5506
  -11.4789   -0.2693   10.8304    5.0316   -5.7996  -21.3809   12.9148   17.4287    4.3346   10.3877
  -15.2776    0.1482   10.0175   19.2154   -9.6004    7.0432  -29.3553    8.9317   17.5140  -16.5291
    9.6741  -12.9246   20.9949  -32.9803  -28.4469  -24.3660   35.4227   14.5244    1.1102    1.7235
  -19.5303   30.9504    3.7630    9.7488   -2.6676   -2.8367   17.4048   18.6723   -1.4871    7.4488
    5.5051   -0.1368    0.5654  -21.0202   -4.0180   11.2874  -34.0856  518.2460   48.9106 1088.3201
  -16.9914  -28.0928   31.9576    8.3534  -12.5909  -13.3450   26.3148   12.2399  -35.9605  -35.6160
   -5.5744   33.1936   -0.4717   26.6080  -21.1664   17.8261   -6.5624   12.3948   -9.0038  -28.8821
   -9.6259   -0.3752  -12.0507    2.4797  -19.9428   -0.1073  -19.3149   45.9230    7.1288   12.8866
  -37.0121   -9.8855    1.4882  -21.5446   13.8589   -8.0606   48.7787    7.7419    6.5841   -0.7800
   20.5588    0.8481    0.1491    6.1140    2.3814    7.0713  -11.9040  -25.9987    0.4179  -10.7309
   15.9214   -8.0387   -0.8061    6.0226   20.6194  -17.8960   -9.6154  -20.3396  -41.7435  -10.3796
  -10.7626  -15.2164  -46.7291  -17.3755   14.5782   19.2035  -19.7805   -5.6369   17.3497   -3.3512
   -2.0103   16.1301   -5.8272   -5.7886   -2.1297   -3.9788   -1.0957   -7.0853   12.7582    1.9587
    4.1818    5.0927   10.3076   -0.6748    7.1869   14.1207    9.6600 -423.0223  230.0756 -251.1351
  861.8239
  -19.9307  -12.7693  -59.9742   10.7165   39.2385   24.3605  -29.6090  -13.2038   51.6711   43.9634
    3.6349  -43.9015    5.2437  -35.4170   10.8022  -13.3090   -2.0526  -26.1783    1.0049   18.0542
   -0.9264  -13.9305  -32.3082   14.0671    6.4525    4.8255   17.7841  -29.9903   18.4462   17.4482
   40.6952  -29.8599   -4.3577   19.2893   41.1479   -2.0678  -14.3575  -53.8883  -45.9526   -0.1355
   -5.4355   -5.8823    7.6827   -9.9647    8.9464   -7.1148    1.9280   10.7653    0.5380    4.0063
    0.7491    5.1325   14.8045   19.4594   30.3340   11.8588   10.9958   -3.3146  -28.1883  -10.3150
    6.4126   10.4714   19.2324   -5.5058  -26.9034  -18.8440   30.4079   -2.6962  -13.9041  -19.0378
    4.6092   14.4094   -9.7457   -1.7362   -1.1046   -8.6023    8.4911    6.6998   -9.8285   -3.1994
   12.7477    4.9502    0.1070    3.5398    3.2476   -6.8923  -15.5622  180.9015 -317.3143  176.2604
 -174.7777 1396.2619
  -14.4540  -26.2630  -48.8342   31.2691   -0.0361   40.8300   -2.7330    0.9841   -2.4403   -9.2974
  -23.5252  -17.8032   -2.3564    2.2057    0.3544   11.0873   -4.7591   -5.8337    2.4023   -3.7542
[...]
    1.3867    5.8800   11.0683   13.2742    9.2569   53.5380  -65.0381  -39.9334  -43.1019    5.0503
   37.0751   13.5463    3.8097   -7.3810  -12.5883    0.6096  -19.8357    1.0156   10.7611   -4.7926
   -7.4870   13.2018   -1.3544   15.4874   -8.4572    2.2773   -9.8098    7.3514   -0.1326  -15.7938
    5.6748   -2.3234    6.9679  -12.3616  -42.2245 -398.7713   -5.6190   21.0273   17.9665    7.9859
   28.5765  519.5568
    6.9920    7.5411  -13.1244    4.0756    9.6216    2.4317  -17.4823   -9.3347   11.7954   -0.3210
    3.9437  -17.2834   -7.2653   -7.5651    7.4815    0.1161    1.9389    2.8276   -0.5196    1.2382
    2.7989   26.7709  -16.7622   -9.5435   -4.8627   11.0620    1.0549  -28.6803  -11.9722   12.1579
   52.8509  -14.8610  -24.4734    3.4880   15.2328  -14.0425  -22.9817  -16.5485   11.0435    6.2686
   -4.2481   -4.3567    6.1311   -5.2233    3.1168   -5.7320    9.3856   19.5079    3.6716    8.1415
   -4.2936    6.0560    0.2669  -10.4127   13.1202    1.2233    4.6433    2.4701   -1.8677   10.4776
  -10.6448   -0.2109   47.1049   12.8700   -9.0409  -15.2275   17.3700   11.3366  -18.5054  -22.0258
   20.2174   41.2421   16.4664    3.3598    2.8508    5.2348    1.8967   10.2242    5.2172    4.1033
    5.8384    6.3942  -10.3035    4.2651   -0.6251   -8.0780   -5.9032   19.5366   -5.9288    6.8640
  -11.3155    7.5053   18.4611   37.9689   -9.8959  -31.1316  -17.1031   -1.2169    4.9510  -11.7883
    0.0382   22.1405   28.0957   -9.3884  -16.8895    5.3203   -1.3550   -2.1733   11.8637    3.5955
   -2.3776    0.4918   -0.8992    7.8203    9.8371    0.1835    6.4735   -3.9666   -0.9862    6.9739
    2.4090  -23.9785  -12.4402    9.9137   20.3471  -24.9156    4.3190   -5.4376   -3.4327   13.9862
  -14.4386   -1.1475   -1.5940   20.6751  -12.1861  -15.6999  -11.9748  -16.9927    4.1539    2.0869
   -3.9347   12.1558  -14.1836    9.5552   -2.1429   -4.5767    5.0243   -1.9874   -3.5720    0.3399
    4.9759    2.7597  -13.8976   18.9292  -10.8378    5.5148  -55.6985  -11.4020    5.7231   35.5920
  -19.6970  -25.1324    2.0495   -2.8934   -1.5469    2.2035   -1.2146   -1.0934   36.5843   18.6506
    8.3158   -3.3224   -7.1623  -30.2448   -0.1927    6.2867    1.1089   20.8492  -10.0060   -7.1635
    2.3332   10.2248   35.5704 -320.0859  123.6442   72.3968   16.2487    6.8309   -9.7737   17.4898
   -9.2031   26.1981  481.5052
    0.4984   -8.7129   11.3312    4.3077   -1.8336    7.6962    8.1690    1.9483  -17.6813   -4.2242
    7.2415   26.3135    1.0690   13.5954   -5.0840   -4.5555    5.3739   -2.1709   -3.6551   -0.9280
   -2.7711  -13.9851    1.1141   10.2126    0.7784   -8.5753    1.2294   16.1753   17.5825   -9.6322
  -33.9442    8.4097   13.1837    1.3556   -7.6175   -5.3122    8.6777    5.0814   -8.4941   -5.6249
    4.9689    3.4981   -5.6129    3.1817   -0.3271    4.2151   -3.6940   -7.6668   -5.2261   -7.3329
    7.1767  -11.4404    0.6773    5.6424   -1.6077    6.7668    2.2550    3.3236   -0.1568   -4.7652
   11.4679   -4.7862  -30.9216   -9.2276   -1.0333    7.0593  -18.8159   -2.4842   11.3059    9.9826
   -6.9856  -18.7351  -11.8862   -3.3969   -2.5197   -3.4697   -2.8972   -6.9119   -2.3944    0.4323
   -1.4518    0.8878   -0.9541    3.7855    1.5350    2.9666    8.4497   -3.9702   -0.1414   -4.5011
    2.3788    3.9675   -6.9933   -9.8332   13.4300   19.2766    4.4096    3.0494   -3.5101    7.3184
   -9.1167  -12.6581  -14.1496    3.6691    7.4007   -5.8743    8.1046    0.2220  -10.8887   -2.1296
   -4.8976    1.0782   -0.1806   -2.3553   -9.1453   -1.2338   -7.2120   -5.0284    3.8245   -7.8191
    5.0072   16.3072   -0.1798   -6.3184  -17.8511   17.5448  -11.0022   -1.8128    4.4699   -7.4212
   -0.9647    6.1942   -2.1005   -6.2869    6.0593   14.8885    7.8201    6.4749   -4.2909   -4.3286
    1.9456   -4.9228    5.7900   -4.2813    7.5674   12.2981   -4.3194    5.2021   -2.2363    5.0335
   -4.5928  -11.4492   11.0910   -3.7499    0.8647   -2.2358  -11.3146   31.5668   -0.7151   10.9448
   -8.1720    0.6645    0.5986    3.4097  -10.0991   -1.7634  -11.3195   -6.4073   -4.9677   -9.5334
    1.1503    8.4880   -9.7387    3.1874   15.2383   -0.6275   -2.2899   -9.5817    4.4567   12.5161
   -7.3727   -6.5525  -15.1174  109.2825 -105.7878  -26.4067    8.2443   11.3098  -20.1282  -14.8146
   18.4502  -12.0263 -104.8819  233.1812
   -9.0477   -4.7630   10.4624    0.4641   -0.5663    1.4308    9.1231   -7.4739  -19.4946  -12.2474
   -2.1432   13.8140    6.3133   -7.3533    3.5788    4.3418  -10.0026    9.4574    2.0609   -3.5535
    6.9447   -7.7279    5.3603   10.0034    0.0410    6.5167  -10.9895   24.9185    5.6979   -7.7898
  -34.1986   -2.4987   12.1726   15.9254  -18.9231    3.3609   -0.2880   14.6745   -3.4621   -4.9476
    3.4842    4.7521   -3.3952    2.8734    6.0995    7.7444   -3.5518  -10.5264   -2.7022  -10.5516
    5.7313   -8.0610   -4.4497    5.1214   -0.4084    5.4429   -1.3534   -3.7996   -4.0740   -0.8887
   12.2980   -6.9397  -30.1238  -11.1484   -1.3435   14.1641   -9.2451   -0.7438    6.3318    7.7116
   -6.5527  -20.0035   -3.0028    4.7261   -3.3758    4.2452   -2.2175   -1.1235    5.7994   -6.2610
    2.0896   -3.8483    4.1649   -6.5964    0.3048   11.0421   -0.4693   -7.0656   -7.9573    3.2891
   12.7574   -6.1607   -6.2150  -19.7953   -0.2929   21.1280   12.8283   -1.9653   -3.0703    1.9611
    0.3677    3.2850   -6.6737    8.8158    7.0449    5.3636    6.3661    3.7401   -0.9285   -5.3756
    2.0859   -8.4780    1.9470   -6.9316   -8.3747    2.6681   -1.7163    9.1835    6.5548   -5.8463
    0.5509   13.5054   -2.7520  -15.2326   -1.5781    0.8835    3.4832    2.8723   -1.6083    1.4104
   12.9738    2.6948    0.6130   -4.0903    2.3883    4.1956   11.7579   13.6057   -2.5975   -2.0025
   -0.8230   -1.5397    4.1727    2.2109   -1.7333    3.7714    1.3519   -0.8639    6.1419    6.2515
   -6.0798   -5.1689   10.3653  -10.5611    3.1681   -1.3792   15.9315   -6.0941    4.3485  -10.9906
    9.8395   -0.4203   -3.9530   -6.5485   -5.3552    1.2341    1.5451    0.5470  -13.3592   -0.3115
  -14.1715    5.5403   18.5276    3.9725  -12.1122   -1.1073    7.6585  -18.1829   -1.9935  -11.7841
   11.7413   -1.9913  -17.7008   98.7771  -41.4265  -81.4261  -23.0368   -0.4528   18.1909   22.6666
  -18.4214    0.8625  -94.5887   51.1528  185.0716


      MOLECULAR POINT GROUP   :   C1  


          ALPHA EIGENVALUES  
 -41.20892 -40.83981 -40.74871 -39.51892 -38.17712 -32.11701 -31.84627 -31.79507
 -31.71198 -31.18772 -29.69878 -29.60741 -29.55717 -29.47814 -28.09803 -26.98973
 -25.64711 -25.52761 -25.50834 -25.46914 -25.32894 -25.27052 -25.19405 -25.13550
 -25.06922 -25.00290 -23.40896 -21.66020 -21.59821 -21.44925 -21.27555 -19.81947
 -19.76864 -19.70643 -19.66403 -19.52595 -19.12056 -19.08535 -18.93802 -18.90204
 -18.69360 -18.21974 -18.12153 -18.09132 -17.88294 -17.87665 -17.84539 -17.78384
 -17.50412 -17.45832 -17.37864 -17.31116 -17.24291 -17.09209 -17.02459 -16.63229
 -16.24260 -16.23361 -15.62007 -15.58361 -15.52011 -15.46993 -15.27997 -15.21592
 -15.10995 -14.94378 -14.66043 -14.65030 -14.59063 -14.34694 -14.27414 -14.10310
 -14.03802 -13.95700 -13.88722 -13.29275 -13.22213 -13.16416 -13.11564 -13.10212
 -13.08540 -12.41877 -12.19206 -11.87868 -11.45497  -9.66358  -9.56409  -9.53093
  -3.51905  -3.42917  -3.40035  -3.32737  -3.18287  -3.10565  -3.04805  -3.01031
  -2.16840  -1.92513  -1.45026  -1.38432  -0.86557  -0.80976  -0.75904  -0.73612
  -0.02697   0.05766   0.50711   0.58954   1.03630   1.08864   1.11959   1.16046
   1.18386   1.20280   1.23287   1.35942   1.40821   1.42117   1.46140   1.52375
   1.55820   1.90771   1.94593   2.01310   2.05052   2.07190   2.11772   2.11954
   2.16109   2.19902   2.43687   2.48234   2.60735   2.65791   2.70660   2.75184
   2.80389   2.82471   2.85375   2.89593   2.94393   3.00110   3.02507   3.03359
   3.08640   3.09687   3.09874   3.14442   3.15725   3.19611   3.20669   3.21076
   3.22345   3.25482   3.29040   3.53314   4.25743   4.44499   4.46176   4.53319
   4.56328   4.57405   4.58861   4.65069   4.65886   5.22368   5.23104   5.54316
   5.75109   5.76511   6.68424  49.37543  49.42021  50.79742


           BETA EIGENVALUES 
 -41.20962 -40.84595 -40.75046 -39.52133 -38.30379 -32.11024 -31.84730 -31.79559
 -31.71214 -31.06683 -29.69553 -29.60667 -29.55655 -29.47786 -28.10296 -26.70309
 -25.64921 -25.52506 -25.50614 -25.46881 -25.32569 -25.26860 -25.19308 -25.12849
 -25.06687 -24.99358 -23.35251 -21.66183 -21.60023 -21.45208 -21.27225 -19.79259
 -19.74499 -19.69231 -19.66026 -19.51423 -19.12216 -19.08622 -18.93834 -18.90311
 -18.69417 -18.21735 -18.14062 -18.10099 -17.89000 -17.88309 -17.83526 -17.78078
 -17.49250 -17.46104 -17.38907 -17.32673 -17.23486 -17.10301 -17.04141 -16.52703
 -16.23455 -16.22512 -15.61859 -15.58168 -15.51888 -15.46773 -15.26145 -15.20638
 -15.10230 -14.91762 -14.65135 -14.64132 -14.57156 -14.34044 -14.26936 -14.10368
 -14.05288 -13.96690 -13.90104 -13.29079 -13.22073 -13.16033 -13.10825 -13.09303
 -13.08283 -12.33553 -11.87176 -11.74496 -11.38156  -9.47388  -9.35360  -3.52858
  -3.43124  -3.40750  -3.32541  -3.18281  -3.10559  -3.04810  -3.01011  -2.09719
  -1.85061  -1.46131  -1.44578  -0.86677  -0.81124  -0.75935  -0.73668  -0.03417
   0.05287   0.22820   0.58330   1.02656   1.07230   1.08109   1.15863   1.16936
   1.20036   1.22529   1.28661   1.37502   1.40846   1.46100   1.52427   1.55827
   1.83235   1.91602   1.95723   2.04971   2.06870   2.11708   2.11812   2.16149
   2.19941   2.44123   2.48541   2.61320   2.66106   2.70644   2.75097   2.77891
   2.82472   2.85364   2.89602   2.94395   3.00172   3.02067   3.02712   3.09426
   3.10920   3.12236   3.14529   3.16442   3.18865   3.20015   3.20990   3.22775
   3.26076   3.29569   3.49844   4.16820   4.44918   4.46555   4.50873   4.56830
   4.58019   4.58924   5.49436   5.50109   5.54311   5.59252   5.60039   5.79367
   5.80323   6.42832   7.07995  49.44477  49.45565  50.90625


              NET ATOMIC CHARGES AND DIPOLE CONTRIBUTIONS

  ATOM NO.   TYPE          CHARGE      No. of ELECS.   s-Pop       p-Pop       d-Pop       
    1         Co           2.197801        6.8022     0.49601     0.27281     6.03338
    2          C          -0.351712        4.3517     1.37098     2.98073
    3          N          -0.475984        5.4760     1.68925     3.78673
    4          C          -0.206491        4.2065     1.05414     3.15235
    5          H           0.159417        0.8406     0.84058
    6          H           0.118762        0.8812     0.88124
    7          H           0.151987        0.8480     0.84801
    8          C          -0.028818        4.0288     1.09461     2.93421
    9          C          -0.221596        4.2216     1.08981     3.13178
   10          C           0.132140        3.8679     1.12098     2.74688
   11          N          -0.424056        5.4241     1.63337     3.79069
   12          C           0.036132        3.9639     1.09810     2.86577
   13          C          -0.213393        4.2134     1.08579     3.12760
   14          H           0.173676        0.8263     0.82632
   15          H           0.188093        0.8119     0.81191
   16          H           0.234950        0.7650     0.76505
   17          H           0.170403        0.8296     0.82960
   18          H           0.181890        0.8181     0.81811
   19          C          -0.024695        4.0247     1.09497     2.92972
   20          C          -0.227823        4.2278     1.08875     3.13907
   21          C           0.129917        3.8701     1.12062     2.74946
   22          N          -0.433063        5.4331     1.63016     3.80291
   23          C           0.056496        3.9435     1.10281     2.84069
   24          C          -0.216368        4.2164     1.08563     3.13074
   25          H           0.172834        0.8272     0.82717
   26          H           0.187719        0.8123     0.81228
   27          H           0.233670        0.7663     0.76633
   28          H           0.185303        0.8147     0.81470
   29          H           0.183099        0.8169     0.81690
   30          C          -0.027841        4.0278     1.09479     2.93305
   31          C          -0.226372        4.2264     1.08887     3.13750
   32          C           0.120776        3.8792     1.12109     2.75814
   33          N          -0.430963        5.4310     1.63229     3.79868
   34          C           0.046421        3.9536     1.10453     2.84904
   35          C          -0.215933        4.2159     1.08602     3.12992
   36          H           0.172930        0.8271     0.82707
   37          H           0.187074        0.8129     0.81293
   38          H           0.234693        0.7653     0.76531
   39          H           0.192648        0.8074     0.80735
   40          H           0.183167        0.8168     0.81683
   41          C          -0.024067        4.0241     1.09523     2.92883
   42          C          -0.222975        4.2230     1.08971     3.13326
   43          C           0.133860        3.8661     1.12127     2.74487
   44          N          -0.434938        5.4349     1.63350     3.80144
   45          C           0.037840        3.9622     1.09993     2.86223
   46          C          -0.214371        4.2144     1.08603     3.12834
   47          H           0.174614        0.8254     0.82539
   48          H           0.189206        0.8108     0.81079
   49          H           0.235733        0.7643     0.76427
   50          H           0.177238        0.8228     0.82276
   51          H           0.183572        0.8164     0.81643
   52          S          -1.901940        7.9019     1.86045     5.21391     0.82757
   53          C           0.500296        3.4997     1.05638     2.44333
   54          C          -0.479284        4.4793     1.06172     3.41757
   55          H           0.147627        0.8524     0.85237
   56          H           0.141385        0.8586     0.85862
   57          H           0.144196        0.8558     0.85580
   58          C          -0.476115        4.4761     1.06132     3.41479
   59          H           0.141720        0.8583     0.85828
   60          H           0.141721        0.8583     0.85828
   61          H           0.146477        0.8535     0.85352
   62          C          -0.479404        4.4794     1.06169     3.41771
   63          H           0.140115        0.8599     0.85989
   64          H           0.147829        0.8522     0.85217
   65          H           0.142774        0.8572     0.85723
 DIPOLE           X         Y         Z       TOTAL
 POINT-CHG.    -0.728     0.711     5.214     5.312
 HYBRID        -0.415     0.087    -0.285     0.510
 SUM           -1.142     0.798     4.929     5.122


          ATOMIC ORBITAL ELECTRON POPULATIONS

     Atom    s        px        py        pz      x^2-y^2     xz        z^2       yz        xy
    1 Co   0.49601   0.08663   0.08533   0.10084   0.49086   1.37173   0.60764   1.62955   1.93360
    2  C   1.37098   0.95033   0.93839   1.09201
    3  N   1.68925   1.36701   1.35148   1.06825
    4  C   1.05414   1.04461   1.14355   0.96419
    5  H   0.84058
    6  H   0.88124
    7  H   0.84801
    8  C   1.09461   0.91193   1.08303   0.93926
    9  C   1.08981   1.05518   0.99909   1.07751
   10  C   1.12098   0.90603   0.98135   0.85950
   11  N   1.63337   1.22141   1.38271   1.18656
   12  C   1.09810   0.93219   0.96364   0.96994
   13  C   1.08579   1.06330   1.00750   1.05681
   14  H   0.82632
   15  H   0.81191
   16  H   0.76505
   17  H   0.82960
   18  H   0.81811
   19  C   1.09497   1.08147   0.91201   0.93624
   20  C   1.08875   0.99865   1.06036   1.08006
   21  C   1.12062   0.98296   0.90884   0.85766
   22  N   1.63016   1.38175   1.22412   1.19704
   23  C   1.10281   0.96063   0.91642   0.96364
   24  C   1.08563   1.00855   1.06650   1.05569
   25  H   0.82717
   26  H   0.81228
   27  H   0.76633
   28  H   0.81470
   29  H   0.81690
   30  C   1.09479   0.91388   1.08418   0.93499
   31  C   1.08887   1.05937   1.00220   1.07593
   32  C   1.12109   0.91426   0.97577   0.86811
   33  N   1.63229   1.22030   1.38706   1.19132
   34  C   1.10453   0.92040   0.97119   0.95746
   35  C   1.08602   1.06550   1.00513   1.05929
   36  H   0.82707
   37  H   0.81293
   38  H   0.76531
   39  H   0.80735
   40  H   0.81683
   41  C   1.09523   1.08485   0.91139   0.93260
   42  C   1.08971   1.00162   1.05691   1.07473
   43  C   1.12127   0.97356   0.90787   0.86344
   44  N   1.63350   1.38779   1.22276   1.19089
   45  C   1.09993   0.97326   0.92606   0.96291
   46  C   1.08603   1.00298   1.06481   1.06056
   47  H   0.82539
   48  H   0.81079
   49  H   0.76427
   50  H   0.82276
   51  H   0.81643
   52  S   1.86045   1.89505   1.92871   1.39015   0.00013   0.00640   0.81535   0.00541   0.00028
   53  C   1.05638   0.88611   0.88707   0.67014
   54  C   1.06172   1.11260   1.15871   1.14626
   55  H   0.85237
   56  H   0.85862
   57  H   0.85580
   58  C   1.06132   1.17392   1.09795   1.14292
   59  H   0.85828
   60  H   0.85828
   61  H   0.85352
   62  C   1.06169   1.12211   1.14494   1.15066
   63  H   0.85989
   64  H   0.85217
   65  H   0.85723


                    (SZ)    =    0.500000
                    (S**2)  =    0.779885


          ATOMIC ORBITAL SPIN POPULATIONS

    Atom   Total    s     px     py     pz   x^2-y^2  xz     z^2    yz     xy
         Atomic
    1 Co  0.2184  0.000 -0.000 -0.000  0.001  0.005  0.103  0.056  0.053  0.001
    2  C -0.0583  0.009 -0.068 -0.006  0.007
    3  N -0.0864 -0.010 -0.029 -0.044 -0.003
    4  C -0.0133 -0.002 -0.004 -0.001 -0.006
    5  H -0.0007 -0.001
    6  H -0.0013 -0.001
    7  H -0.0014 -0.001
    8  C  0.0005  0.000  0.000  0.000  0.000
    9  C -0.0007 -0.000 -0.000 -0.000 -0.000
   10  C  0.0001 -0.000  0.000  0.000 -0.000
   11  N -0.0018 -0.000 -0.000 -0.001 -0.000
   12  C  0.0002 -0.000  0.000 -0.000  0.000
   13  C -0.0008 -0.000 -0.000 -0.000 -0.000
   14  H -0.0000 -0.000
   15  H  0.0000  0.000
   16  H  0.0001  0.000
   17  H  0.0000  0.000
   18  H  0.0000  0.000
   19  C  0.0022  0.000  0.000  0.001  0.001
   20  C -0.0023 -0.000 -0.000 -0.001 -0.001
   21  C  0.0027  0.000  0.000  0.002  0.000
   22  N -0.0040 -0.001 -0.001 -0.001 -0.001
   23  C  0.0021  0.000  0.000  0.001  0.001
   24  C -0.0021 -0.000 -0.000 -0.001 -0.001
   25  H -0.0001 -0.000
   26  H  0.0001  0.000
   27  H  0.0000  0.000
   28  H -0.0001 -0.000
   29  H  0.0001  0.000
   30  C  0.0000  0.000 -0.000  0.000  0.000
   31  C -0.0002 -0.000 -0.000 -0.000 -0.000
   32  C -0.0000 -0.000  0.000  0.000 -0.000
   33  N -0.0008 -0.000  0.000 -0.000 -0.000
   34  C -0.0002 -0.000 -0.000 -0.000  0.000
   35  C -0.0002 -0.000 -0.000 -0.000 -0.000
   36  H -0.0000 -0.000
   37  H  0.0000  0.000
   38  H  0.0001  0.000
   39  H  0.0000  0.000
   40  H  0.0000  0.000
   41  C  0.0023  0.000  0.000  0.001  0.001
   42  C -0.0025 -0.000 -0.000 -0.001 -0.001
   43  C  0.0028  0.000  0.000  0.002  0.000
   44  N -0.0044 -0.001 -0.001 -0.001 -0.001
   45  C  0.0019  0.000  0.000  0.001  0.001
   46  C -0.0023 -0.000 -0.000 -0.001 -0.001
   47  H -0.0001 -0.000
   48  H  0.0001  0.000
   49  H  0.0000  0.000
   50  H -0.0001 -0.000
   51  H  0.0000  0.000
   52  S  0.8591  0.014  0.017  0.008  0.001  0.000  0.003  0.814  0.002  0.000
   53  C  0.0923  0.013  0.003  0.003  0.073
   54  C -0.0027 -0.000 -0.001 -0.000 -0.000
   55  H  0.0018  0.002
   56  H  0.0003  0.000
   57  H  0.0003  0.000
   58  C -0.0028 -0.001 -0.000 -0.002 -0.000
   59  H  0.0003  0.000
   60  H  0.0003  0.000
   61  H  0.0018  0.002
   62  C -0.0030 -0.001 -0.001 -0.001 -0.000
   63  H  0.0003  0.000
   64  H  0.0018  0.002
   65  H  0.0003  0.000

 **********************
 *                    *
 * JOB ENDED NORMALLY *
 *                    *
 **********************



 TOTAL JOB TIME:            21.38 SECONDS

 == MOPAC DONE ==
