 *******************************************************************************
 ** Site#: 26130        For non-commercial use only     Version 16.299L 64BITS**
 *******************************************************************************
 ** Cite this program as: MOPAC2016, Version: 16.299L, James J. P. Stewart,   **
 ** Stewart Computational Chemistry, web: HTTP://OpenMOPAC.net. Days left: 350**
 *******************************************************************************
 **                                                                           **
 **                                MOPAC2016                                  **
 **                                                                           **
 *******************************************************************************

                              PM7 CALCULATION RESULTS


 *******************************************************************************
 *  CALCULATION DONE:                                Thu Nov 10 15:53:43 2016  *
 *  PM7        - The PM7 Hamiltonian to be used
 *  QUARTET    - SPIN STATE DEFINED AS A QUARTET
 *  UHF        - UNRESTRICTED HARTREE-FOCK CALCULATION
 *
 *
 *
 *                 CHARGE ON SYSTEM =    +1
 *
 *
 *
 *  XYZ        - CARTESIAN COORDINATE SYSTEM TO BE USED
 *  EF         - USE EF ROUTINE FOR MINIMUM SEARCH
 *  T=         - A TIME OF 172800.0 SECONDS REQUESTED
 *  DUMP=N     - RESTART FILE WRITTEN EVERY  7200.000 SECONDS
 *  HESSIAN    - WRITE OUT HESSIAN FROM GEOMERY OPTIMIZATION
 *******************************************************************************
 EF PM7 XYZ HESSIAN QUARTET UHF CHARGE=1
 1000_C40_4

   ATOM   CHEMICAL          X               Y               Z
  NUMBER   SYMBOL      (ANGSTROMS)     (ANGSTROMS)     (ANGSTROMS)
 
     1      Co          0.00000000  *   0.00000000  *   0.00000000  *
     2       C          0.00000000  *   0.00000000  *   1.96000000  *
     3       N          0.00000000  *   0.00000000  *   3.10510000  *
     4       C          0.00000000  *   0.00000000  *   4.64300000  *
     5       H          0.62237200  *  -0.85940300  *   4.99520000  *
     6       H         -1.05542800  *  -0.10930100  *   4.99520000  *
     7       H          0.43305700  *   0.96870400  *   4.99520000  *
     8       C         -0.00022200  *   4.94709800  *  -0.00053000  *
     9       C          0.32870000  *   4.24423100  *  -1.15514800  *
    10       C          0.31290900  *   2.85934300  *  -1.10610900  *
    11       N          0.00000000  *   2.15000000  *  -0.00000600  *
    12       C         -0.31290900  *   2.85984900  *   1.10609700  *
    13       C         -0.32851000  *   4.24476900  *   1.15402500  *
    14       H         -0.00031700  *   6.03329000  *  -0.00098600  *
    15       H          0.59048700  *   4.76188200  *  -2.07059700  *
    16       H          0.55898100  *   2.26568400  *  -1.98183900  *
    17       H         -0.55851600  *   2.26671300  *   1.98202600  *
    18       H         -0.58999500  *   4.76293800  *   2.06978500  *
    19       C          4.94709800  *  -0.00037900  *  -0.00043100  *
    20       C          4.24423100  *  -1.18230100  *  -0.21112700  *
    21       C          2.85934300  *  -1.13130400  *  -0.20381500  *
    22       N          2.15000000  *  -0.00000500  *  -0.00000200  *
    23       C          2.85984900  *   1.13129300  *   0.20381000  *
    24       C          4.24476900  *   1.18120900  *   0.21080500  *
    25       H          6.03329000  *  -0.00074700  *  -0.00071700  *
    26       H          4.76188200  *  -2.11983600  *  -0.37728100  *
    27       H          2.26568400  *  -2.02625100  *  -0.36667500  *
    28       H          2.26671300  *   2.02621500  *   0.36717500  *
    29       H          4.76293800  *   2.11889000  *   0.37736800  *
    30       C         -0.00002100  *  -4.94709800  *  -0.00057400  *
    31       C         -0.78275100  *  -4.24423100  *  -0.91088500  *
    32       C         -0.74785400  *  -2.85934300  *  -0.87298500  *
    33       N         -0.00000200  *  -2.15000000  *  -0.00000500  *
    34       C          0.74784900  *  -2.85984900  *   0.87297500  *
    35       C          0.78210800  *  -4.24476900  *   0.90994500  *
    36       H         -0.00012500  *  -6.03329000  *  -0.00102800  *
    37       H         -1.40425200  *  -4.76188200  *  -1.63221400  *
    38       H         -1.33843500  *  -2.26568400  *  -1.56484400  *
    39       H          1.33809100  *  -2.26671300  *   1.56520900  *
    40       H          1.40346500  *  -4.76293800  *   1.63168300  *
    41       C         -4.94709800  *  -0.00023700  *  -0.00052300  *
    42       C         -4.24423100  *   0.29536100  *  -1.16411800  *
    43       C         -2.85934300  *   0.28098700  *  -1.11464600  *
    44       N         -2.15000000  *   0.00000000  *  -0.00000600  *
    45       C         -2.85984900  *  -0.28098700  *   1.11463400  *
    46       C         -4.24476900  *  -0.29520400  *   1.16299100  *
    47       H         -6.03329000  *  -0.00034500  *  -0.00097600  *
    48       H         -4.76188200  *   0.53072700  *  -2.08671400  *
    49       H         -2.26568400  *   0.50178500  *  -1.99708700  *
    50       H         -2.26671300  *  -0.50131500  *   1.99726000  *
    51       H         -4.76293800  *  -0.53025800  *   2.08588800  *
    52       S          0.00009900  *   0.00022800  *  -2.28000000  *
    53       C          0.00009900  *   0.00022800  *  -4.11712800  *
    54       C          1.34296800  *  -0.55451500  *  -4.61083300  *
    55       H          1.38491300  *  -0.53867600  *  -5.70752700  *
    56       H          1.50539000  *  -1.59032600  *  -4.29571000  *
    57       H          2.19424400  *   0.04229600  *  -4.25373300  *
    58       C         -0.17344400  *   1.44998300  *  -4.59153700  *
    59       H          0.65282100  *   2.09396900  *  -4.25881600  *
    60       H         -1.10465000  *   1.89649000  *  -4.22434400  *
    61       H         -0.20022600  *   1.49875200  *  -5.68660400  *
    62       C         -1.15896600  *  -0.87335000  *  -4.62741400  *
    63       H         -1.42923800  *  -1.68950600  *  -3.94605700  *
    64       H         -0.90715100  *  -1.33707800  *  -5.58829100  *
    65       H         -2.06615400  *  -0.28000300  *  -4.79586100  *
 


          CARTESIAN COORDINATES 

    NO.       ATOM         X         Y         Z

     1        Co        0.0000    0.0000    0.0000
     2         C        0.0000    0.0000    1.9600
     3         N        0.0000    0.0000    3.1051
     4         C        0.0000    0.0000    4.6430
     5         H        0.6224   -0.8594    4.9952
     6         H       -1.0554   -0.1093    4.9952
     7         H        0.4331    0.9687    4.9952
     8         C       -0.0002    4.9471   -0.0005
     9         C        0.3287    4.2442   -1.1551
    10         C        0.3129    2.8593   -1.1061
    11         N        0.0000    2.1500   -0.0000
    12         C       -0.3129    2.8598    1.1061
    13         C       -0.3285    4.2448    1.1540
    14         H       -0.0003    6.0333   -0.0010
    15         H        0.5905    4.7619   -2.0706
    16         H        0.5590    2.2657   -1.9818
    17         H       -0.5585    2.2667    1.9820
    18         H       -0.5900    4.7629    2.0698
    19         C        4.9471   -0.0004   -0.0004
    20         C        4.2442   -1.1823   -0.2111
    21         C        2.8593   -1.1313   -0.2038
    22         N        2.1500   -0.0000   -0.0000
    23         C        2.8598    1.1313    0.2038
    24         C        4.2448    1.1812    0.2108
    25         H        6.0333   -0.0007   -0.0007
    26         H        4.7619   -2.1198   -0.3773
    27         H        2.2657   -2.0263   -0.3667
    28         H        2.2667    2.0262    0.3672
    29         H        4.7629    2.1189    0.3774
    30         C       -0.0000   -4.9471   -0.0006
    31         C       -0.7828   -4.2442   -0.9109
    32         C       -0.7479   -2.8593   -0.8730
    33         N       -0.0000   -2.1500   -0.0000
    34         C        0.7478   -2.8598    0.8730
    35         C        0.7821   -4.2448    0.9099
    36         H       -0.0001   -6.0333   -0.0010
    37         H       -1.4043   -4.7619   -1.6322
    38         H       -1.3384   -2.2657   -1.5648
    39         H        1.3381   -2.2667    1.5652
    40         H        1.4035   -4.7629    1.6317
    41         C       -4.9471   -0.0002   -0.0005
    42         C       -4.2442    0.2954   -1.1641
    43         C       -2.8593    0.2810   -1.1146
    44         N       -2.1500    0.0000   -0.0000
    45         C       -2.8598   -0.2810    1.1146
    46         C       -4.2448   -0.2952    1.1630
    47         H       -6.0333   -0.0003   -0.0010
    48         H       -4.7619    0.5307   -2.0867
    49         H       -2.2657    0.5018   -1.9971
    50         H       -2.2667   -0.5013    1.9973
    51         H       -4.7629   -0.5303    2.0859
    52         S        0.0001    0.0002   -2.2800
    53         C        0.0001    0.0002   -4.1171
    54         C        1.3430   -0.5545   -4.6108
    55         H        1.3849   -0.5387   -5.7075
    56         H        1.5054   -1.5903   -4.2957
    57         H        2.1942    0.0423   -4.2537
    58         C       -0.1734    1.4500   -4.5915
    59         H        0.6528    2.0940   -4.2588
    60         H       -1.1046    1.8965   -4.2243
    61         H       -0.2002    1.4988   -5.6866
    62         C       -1.1590   -0.8734   -4.6274
    63         H       -1.4292   -1.6895   -3.9461
    64         H       -0.9072   -1.3371   -5.5883
    65         H       -2.0662   -0.2800   -4.7959

 General Reference for PM7:
 "Optimization of Parameters for Semiempirical Methods VI: More Modifications to the 
 NDDO Approximations and Re-optimization of Parameters", J. J. P. Stewart, J. Mol. Mod., 1:32, 19 (2013)
 http://www.springerlink.com/openurl.asp?genre=article&id=doi:10.1007/s00894-012-1667-x

           Empirical Formula: C26 H32 N5 Co S  =    65 atoms



      MOLECULAR POINT GROUP   :   C1  


 QUARTET STATE CALCULATION


          UHF CALCULATION, NO. OF ALPHA ELECTRONS =   89
                           NO. OF BETA  ELECTRONS =   86

          Geometry optimization using EF

          DIAGONAL MATRIX USED AS START HESSIAN

 CYCLE:     1 TIME:   2.672 TIME LEFT:  2.00D  GRAD.:   231.125 HEAT:  290.0636
 CYCLE:     2 TIME:   0.199 TIME LEFT:  2.00D  GRAD.:   216.768 HEAT:  287.5359
 CYCLE:     3 TIME:   0.090 TIME LEFT:  2.00D  GRAD.:    79.858 HEAT:  277.2661
 CYCLE:     4 TIME:   0.102 TIME LEFT:  2.00D  GRAD.:   168.141 HEAT:  276.7725
 CYCLE:     5 TIME:   0.094 TIME LEFT:  2.00D  GRAD.:   109.876 HEAT:  270.9987
 CYCLE:     6 TIME:   0.176 TIME LEFT:  2.00D  GRAD.:   134.227 HEAT:  270.8840
 CYCLE:     7 TIME:   0.098 TIME LEFT:  2.00D  GRAD.:    97.104 HEAT:  268.2552
 CYCLE:     8 TIME:   0.102 TIME LEFT:  2.00D  GRAD.:   142.336 HEAT:  268.0936
 CYCLE:     9 TIME:   0.094 TIME LEFT:  2.00D  GRAD.:   116.096 HEAT:  266.7847
 CYCLE:    10 TIME:   0.195 TIME LEFT:  2.00D  GRAD.:    62.832 HEAT:  264.3776
 CYCLE:    11 TIME:   0.086 TIME LEFT:  2.00D  GRAD.:    74.084 HEAT:  264.0885
 CYCLE:    12 TIME:   0.090 TIME LEFT:  2.00D  GRAD.:    98.277 HEAT:  263.4597
 CYCLE:    13 TIME:   0.094 TIME LEFT:  2.00D  GRAD.:    48.225 HEAT:  262.1324
 CYCLE:    14 TIME:   0.168 TIME LEFT:  2.00D  GRAD.:    74.754 HEAT:  261.9319
 CYCLE:    15 TIME:   0.090 TIME LEFT:  2.00D  GRAD.:    52.133 HEAT:  261.3109
 CYCLE:    16 TIME:   0.086 TIME LEFT:  2.00D  GRAD.:    80.363 HEAT:  261.1607
 CYCLE:    17 TIME:   0.086 TIME LEFT:  2.00D  GRAD.:    39.337 HEAT:  260.2724
 CYCLE:    18 TIME:   0.172 TIME LEFT:  2.00D  GRAD.:    50.606 HEAT:  260.0865
 CYCLE:    19 TIME:   0.078 TIME LEFT:  2.00D  GRAD.:    22.558 HEAT:  259.5146
 CYCLE:    20 TIME:   0.176 TIME LEFT:  2.00D  GRAD.:    25.672 HEAT:  259.3348
 CYCLE:    21 TIME:   0.082 TIME LEFT:  2.00D  GRAD.:    19.015 HEAT:  259.0620
 CYCLE:    22 TIME:   0.086 TIME LEFT:  2.00D  GRAD.:    41.285 HEAT:  258.9328
 CYCLE:    23 TIME:   0.082 TIME LEFT:  2.00D  GRAD.:    15.238 HEAT:  258.4460
 CYCLE:    24 TIME:   0.160 TIME LEFT:  2.00D  GRAD.:    33.721 HEAT:  258.3973
 CYCLE:    25 TIME:   0.078 TIME LEFT:  2.00D  GRAD.:    13.191 HEAT:  257.9224
 CYCLE:    26 TIME:   0.164 TIME LEFT:  2.00D  GRAD.:    26.654 HEAT:  257.8302
 CYCLE:    27 TIME:   0.082 TIME LEFT:  2.00D  GRAD.:    20.564 HEAT:  257.4960
 CYCLE:    28 TIME:   0.168 TIME LEFT:  2.00D  GRAD.:    22.851 HEAT:  257.4151
 CYCLE:    29 TIME:   0.086 TIME LEFT:  2.00D  GRAD.:    13.386 HEAT:  257.1746
 CYCLE:    30 TIME:   0.082 TIME LEFT:  2.00D  GRAD.:    30.020 HEAT:  257.1403
 CYCLE:    31 TIME:   0.082 TIME LEFT:  2.00D  GRAD.:    13.233 HEAT:  256.7761
 CYCLE:    32 TIME:   0.086 TIME LEFT:  2.00D  GRAD.:    31.144 HEAT:  256.7667
 CYCLE:    33 TIME:   0.094 TIME LEFT:  2.00D  GRAD.:    22.319 HEAT:  256.3036
 CYCLE:    34 TIME:   0.254 TIME LEFT:  2.00D  GRAD.:    20.315 HEAT:  256.2428
 CYCLE:    35 TIME:   0.082 TIME LEFT:  2.00D  GRAD.:    11.287 HEAT:  256.1041
 CYCLE:    36 TIME:   0.082 TIME LEFT:  2.00D  GRAD.:    22.704 HEAT:  256.0493
 CYCLE:    37 TIME:   0.082 TIME LEFT:  2.00D  GRAD.:    11.413 HEAT:  255.8586
 CYCLE:    38 TIME:   0.082 TIME LEFT:  2.00D  GRAD.:    25.555 HEAT:  255.8224
 CYCLE:    39 TIME:   0.086 TIME LEFT:  2.00D  GRAD.:    13.894 HEAT:  255.5315
 CYCLE:    40 TIME:   0.254 TIME LEFT:  2.00D  GRAD.:    20.506 HEAT:  255.5124
 CYCLE:    41 TIME:   0.082 TIME LEFT:  2.00D  GRAD.:    14.208 HEAT:  255.3858
 CYCLE:    42 TIME:   0.090 TIME LEFT:  2.00D  GRAD.:    25.684 HEAT:  255.3790
 CYCLE:    43 TIME:   0.082 TIME LEFT:  2.00D  GRAD.:     8.844 HEAT:  255.1402
 CYCLE:    44 TIME:   0.094 TIME LEFT:  2.00D  GRAD.:    29.412 HEAT:  255.1051
 CYCLE:    45 TIME:   0.078 TIME LEFT:  2.00D  GRAD.:    17.422 HEAT:  254.7088
 CYCLE:    46 TIME:   0.328 TIME LEFT:  2.00D  GRAD.:     9.764 HEAT:  254.6243
 CYCLE:    47 TIME:   0.082 TIME LEFT:  2.00D  GRAD.:     9.110 HEAT:  254.5510
 CYCLE:    48 TIME:   0.082 TIME LEFT:  2.00D  GRAD.:    11.905 HEAT:  254.4643
 CYCLE:    49 TIME:   0.094 TIME LEFT:  2.00D  GRAD.:     8.298 HEAT:  254.3248
 CYCLE:    50 TIME:   0.078 TIME LEFT:  2.00D  GRAD.:    21.629 HEAT:  254.1386
 CYCLE:    51 TIME:   0.086 TIME LEFT:  2.00D  GRAD.:    34.535 HEAT:  253.9095
 CYCLE:    52 TIME:   0.094 TIME LEFT:  2.00D  GRAD.:    38.485 HEAT:  253.5836
 CYCLE:    53 TIME:   0.090 TIME LEFT:  2.00D  GRAD.:    56.604 HEAT:  253.5518
 CYCLE:    54 TIME:   0.102 TIME LEFT:  2.00D  GRAD.:    60.443 HEAT:  253.3550
 CYCLE:    55 TIME:   0.168 TIME LEFT:  2.00D  GRAD.:    40.593 HEAT:  252.6866
 CYCLE:    56 TIME:   0.168 TIME LEFT:  2.00D  GRAD.:    19.867 HEAT:  252.3114
 CYCLE:    57 TIME:   0.156 TIME LEFT:  2.00D  GRAD.:    12.553 HEAT:  252.2026
 CYCLE:    58 TIME:   0.090 TIME LEFT:  2.00D  GRAD.:    12.692 HEAT:  252.1271
 CYCLE:    59 TIME:   0.090 TIME LEFT:  2.00D  GRAD.:    11.297 HEAT:  252.0146
 CYCLE:    60 TIME:   0.082 TIME LEFT:  2.00D  GRAD.:    24.147 HEAT:  251.9732
 CYCLE:    61 TIME:   0.082 TIME LEFT:  2.00D  GRAD.:    14.237 HEAT:  251.7599
 CYCLE:    62 TIME:   0.078 TIME LEFT:  2.00D  GRAD.:    21.324 HEAT:  251.6492
 CYCLE:    63 TIME:   0.082 TIME LEFT:  2.00D  GRAD.:    19.129 HEAT:  251.4397
 CYCLE:    64 TIME:   0.258 TIME LEFT:  2.00D  GRAD.:    20.100 HEAT:  251.3889
 CYCLE:    65 TIME:   0.113 TIME LEFT:  2.00D  GRAD.:    16.479 HEAT:  251.3199
 CYCLE:    66 TIME:   0.113 TIME LEFT:  2.00D  GRAD.:    14.394 HEAT:  251.2443
 CYCLE:    67 TIME:   0.105 TIME LEFT:  2.00D  GRAD.:     8.834 HEAT:  251.1642
 CYCLE:    68 TIME:   0.109 TIME LEFT:  2.00D  GRAD.:    21.799 HEAT:  251.1443
 CYCLE:    69 TIME:   0.098 TIME LEFT:  2.00D  GRAD.:     9.936 HEAT:  251.0041
 CYCLE:    70 TIME:   0.199 TIME LEFT:  2.00D  GRAD.:    15.641 HEAT:  250.9924
 CYCLE:    71 TIME:   0.109 TIME LEFT:  2.00D  GRAD.:     5.033 HEAT:  250.8805
 CYCLE:    72 TIME:   0.098 TIME LEFT:  2.00D  GRAD.:    10.534 HEAT:  250.7895
 CYCLE:    73 TIME:   0.113 TIME LEFT:  2.00D  GRAD.:     6.523 HEAT:  250.5934
 CYCLE:    74 TIME:   0.121 TIME LEFT:  2.00D  GRAD.:    32.085 HEAT:  250.5129
 CYCLE:    75 TIME:   0.125 TIME LEFT:  2.00D  GRAD.:    20.842 HEAT:  250.0855
 CYCLE:    76 TIME:   0.426 TIME LEFT:  2.00D  GRAD.:     8.732 HEAT:  249.9354
 CYCLE:    77 TIME:   0.109 TIME LEFT:  2.00D  GRAD.:    12.385 HEAT:  249.8931
 CYCLE:    78 TIME:   0.094 TIME LEFT:  2.00D  GRAD.:     5.552 HEAT:  249.7763
 CYCLE:    79 TIME:   0.117 TIME LEFT:  2.00D  GRAD.:    10.942 HEAT:  249.6603
 CYCLE:    80 TIME:   0.098 TIME LEFT:  2.00D  GRAD.:     6.313 HEAT:  249.4196
 CYCLE:    81 TIME:   0.129 TIME LEFT:  2.00D  GRAD.:    13.096 HEAT:  249.0734
 CYCLE:    82 TIME:   0.137 TIME LEFT:  2.00D  GRAD.:    15.634 HEAT:  248.3773
 CYCLE:    83 TIME:   0.133 TIME LEFT:  2.00D  GRAD.:    31.526 HEAT:  247.7209
 CYCLE:    84 TIME:   0.262 TIME LEFT:  2.00D  GRAD.:    41.127 HEAT:  247.6257
 CYCLE:    85 TIME:   0.109 TIME LEFT:  2.00D  GRAD.:    42.391 HEAT:  247.4575
 CYCLE:    86 TIME:   0.262 TIME LEFT:  2.00D  GRAD.:    30.414 HEAT:  247.1134
 CYCLE:    87 TIME:   0.082 TIME LEFT:  2.00D  GRAD.:    25.789 HEAT:  246.9584
 CYCLE:    88 TIME:   0.082 TIME LEFT:  2.00D  GRAD.:    17.739 HEAT:  246.7141
 CYCLE:    89 TIME:   0.160 TIME LEFT:  2.00D  GRAD.:    19.287 HEAT:  246.6918
 CYCLE:    90 TIME:   0.082 TIME LEFT:  2.00D  GRAD.:    17.727 HEAT:  246.6217
 CYCLE:    91 TIME:   0.086 TIME LEFT:  2.00D  GRAD.:    16.785 HEAT:  246.5540
 CYCLE:    92 TIME:   0.086 TIME LEFT:  2.00D  GRAD.:    12.756 HEAT:  246.4631
 CYCLE:    93 TIME:   0.090 TIME LEFT:  2.00D  GRAD.:    19.358 HEAT:  246.4619
 CYCLE:    94 TIME:   0.086 TIME LEFT:  2.00D  GRAD.:    12.342 HEAT:  246.3155
 CYCLE:    95 TIME:   0.242 TIME LEFT:  2.00D  GRAD.:     7.140 HEAT:  246.2493
 CYCLE:    96 TIME:   0.086 TIME LEFT:  2.00D  GRAD.:     5.952 HEAT:  246.1945
 CYCLE:    97 TIME:   0.090 TIME LEFT:  2.00D  GRAD.:     8.183 HEAT:  246.1331
 CYCLE:    98 TIME:   0.090 TIME LEFT:  2.00D  GRAD.:     6.521 HEAT:  246.0387
 CYCLE:    99 TIME:   0.086 TIME LEFT:  2.00D  GRAD.:    11.727 HEAT:  245.9114
 CYCLE:   100 TIME:   0.102 TIME LEFT:  2.00D  GRAD.:    15.894 HEAT:  245.7261
 CYCLE:   101 TIME:   0.094 TIME LEFT:  2.00D  GRAD.:    15.439 HEAT:  245.5113
 CYCLE:   102 TIME:   0.191 TIME LEFT:  2.00D  GRAD.:    20.329 HEAT:  245.4230
 CYCLE:   103 TIME:   0.164 TIME LEFT:  2.00D  GRAD.:    21.188 HEAT:  245.4070
 CYCLE:   104 TIME:   0.082 TIME LEFT:  2.00D  GRAD.:    25.612 HEAT:  245.3969
 CYCLE:   105 TIME:   0.078 TIME LEFT:  2.00D  GRAD.:    13.704 HEAT:  245.1600
 CYCLE:   106 TIME:   0.234 TIME LEFT:  2.00D  GRAD.:    13.848 HEAT:  245.1446
 CYCLE:   107 TIME:   0.078 TIME LEFT:  2.00D  GRAD.:    10.054 HEAT:  245.0771
 CYCLE:   108 TIME:   0.082 TIME LEFT:  2.00D  GRAD.:    12.272 HEAT:  245.0540
 CYCLE:   109 TIME:   0.090 TIME LEFT:  2.00D  GRAD.:     6.922 HEAT:  244.9721
 CYCLE:   110 TIME:   0.234 TIME LEFT:  2.00D  GRAD.:     6.115 HEAT:  244.9549
 CYCLE:   111 TIME:   0.078 TIME LEFT:  2.00D  GRAD.:     4.142 HEAT:  244.9266
 CYCLE:   112 TIME:   0.078 TIME LEFT:  2.00D  GRAD.:     5.763 HEAT:  244.9050
 CYCLE:   113 TIME:   0.074 TIME LEFT:  2.00D  GRAD.:     3.825 HEAT:  244.8622
 CYCLE:   114 TIME:   0.086 TIME LEFT:  2.00D  GRAD.:     5.896 HEAT:  244.8026
 CYCLE:   115 TIME:   0.078 TIME LEFT:  2.00D  GRAD.:     6.271 HEAT:  244.6896
 CYCLE:   116 TIME:   0.090 TIME LEFT:  2.00D  GRAD.:    16.296 HEAT:  244.6887
 CYCLE:   117 TIME:   0.090 TIME LEFT:  2.00D  GRAD.:    14.712 HEAT:  244.5437
 CYCLE:   118 TIME:   0.086 TIME LEFT:  2.00D  GRAD.:    21.492 HEAT:  244.5389
 CYCLE:   119 TIME:   0.094 TIME LEFT:  2.00D  GRAD.:    16.797 HEAT:  244.3064
 CYCLE:   120 TIME:   0.238 TIME LEFT:  2.00D  GRAD.:    14.558 HEAT:  244.2663
 CYCLE:   121 TIME:   0.082 TIME LEFT:  2.00D  GRAD.:    13.545 HEAT:  244.2217
 CYCLE:   122 TIME:   0.102 TIME LEFT:  2.00D  GRAD.:    12.744 HEAT:  244.1857
 CYCLE:   123 TIME:   0.113 TIME LEFT:  2.00D  GRAD.:     9.831 HEAT:  244.1440
 CYCLE:   124 TIME:   0.098 TIME LEFT:  2.00D  GRAD.:     9.790 HEAT:  244.1268
 CYCLE:   125 TIME:   0.109 TIME LEFT:  2.00D  GRAD.:     7.343 HEAT:  244.0836
 CYCLE:   126 TIME:   0.094 TIME LEFT:  2.00D  GRAD.:    11.941 HEAT:  244.0836
 CYCLE:   127 TIME:   0.109 TIME LEFT:  2.00D  GRAD.:     8.460 HEAT:  244.0416
 CYCLE:   128 TIME:   0.094 TIME LEFT:  2.00D  GRAD.:     8.571 HEAT:  244.0185
 CYCLE:   129 TIME:   0.109 TIME LEFT:  2.00D  GRAD.:     6.892 HEAT:  243.9718
 CYCLE:   130 TIME:   0.094 TIME LEFT:  2.00D  GRAD.:    10.139 HEAT:  243.9551
 CYCLE:   131 TIME:   0.113 TIME LEFT:  2.00D  GRAD.:     5.422 HEAT:  243.9052
 CYCLE:   132 TIME:   0.113 TIME LEFT:  2.00D  GRAD.:     9.282 HEAT:  243.8813
 CYCLE:   133 TIME:   0.109 TIME LEFT:  2.00D  GRAD.:     4.512 HEAT:  243.8313
 CYCLE:   134 TIME:   0.125 TIME LEFT:  2.00D  GRAD.:    12.980 HEAT:  243.8157
 CYCLE:   135 TIME:   0.109 TIME LEFT:  2.00D  GRAD.:     7.162 HEAT:  243.7466
 CYCLE:   136 TIME:   0.125 TIME LEFT:  2.00D  GRAD.:    11.687 HEAT:  243.7069
 CYCLE:   137 TIME:   0.098 TIME LEFT:  2.00D  GRAD.:     6.009 HEAT:  243.6270
 CYCLE:   138 TIME:   0.305 TIME LEFT:  2.00D  GRAD.:     4.791 HEAT:  243.6106
 CYCLE:   139 TIME:   0.094 TIME LEFT:  2.00D  GRAD.:     2.256 HEAT:  243.5926
 CYCLE:   140 TIME:   0.117 TIME LEFT:  2.00D  GRAD.:     2.618 HEAT:  243.5774
 CYCLE:   141 TIME:   0.094 TIME LEFT:  2.00D  GRAD.:     2.456 HEAT:  243.5505
 CYCLE:   142 TIME:   0.133 TIME LEFT:  2.00D  GRAD.:     3.525 HEAT:  243.5123
 CYCLE:   143 TIME:   0.113 TIME LEFT:  2.00D  GRAD.:     5.671 HEAT:  243.4707
 CYCLE:   144 TIME:   0.113 TIME LEFT:  2.00D  GRAD.:     6.685 HEAT:  243.4654
 CYCLE:   145 TIME:   0.117 TIME LEFT:  2.00D  GRAD.:     6.520 HEAT:  243.4233
 CYCLE:   146 TIME:   0.098 TIME LEFT:  2.00D  GRAD.:     5.233 HEAT:  243.3992
 CYCLE:   147 TIME:   0.113 TIME LEFT:  2.00D  GRAD.:     3.310 HEAT:  243.3646
 CYCLE:   148 TIME:   0.137 TIME LEFT:  2.00D  GRAD.:     5.597 HEAT:  243.3025
 CYCLE:   149 TIME:   0.129 TIME LEFT:  2.00D  GRAD.:     6.241 HEAT:  243.2250
 CYCLE:   150 TIME:   0.137 TIME LEFT:  2.00D  GRAD.:     7.240 HEAT:  243.1343
 CYCLE:   151 TIME:   0.141 TIME LEFT:  2.00D  GRAD.:    12.179 HEAT:  243.0889
 CYCLE:   152 TIME:   0.113 TIME LEFT:  2.00D  GRAD.:     7.712 HEAT:  243.0135
 CYCLE:   153 TIME:   0.227 TIME LEFT:  2.00D  GRAD.:     8.177 HEAT:  243.0045
 CYCLE:   154 TIME:   0.117 TIME LEFT:  2.00D  GRAD.:     6.466 HEAT:  242.9878
 CYCLE:   155 TIME:   0.199 TIME LEFT:  2.00D  GRAD.:     7.447 HEAT:  242.9700
 CYCLE:   156 TIME:   0.094 TIME LEFT:  2.00D  GRAD.:     5.029 HEAT:  242.9375
 CYCLE:   157 TIME:   0.309 TIME LEFT:  2.00D  GRAD.:     4.827 HEAT:  242.9296
 CYCLE:   158 TIME:   0.098 TIME LEFT:  2.00D  GRAD.:     1.957 HEAT:  242.9158
 CYCLE:   159 TIME:   0.113 TIME LEFT:  2.00D  GRAD.:     1.925 HEAT:  242.9046
 CYCLE:   160 TIME:   0.125 TIME LEFT:  2.00D  GRAD.:     2.037 HEAT:  242.8892
 CYCLE:   161 TIME:   0.125 TIME LEFT:  2.00D  GRAD.:     1.530 HEAT:  242.8684
 CYCLE:   162 TIME:   0.145 TIME LEFT:  2.00D  GRAD.:     2.330 HEAT:  242.8348
 CYCLE:   163 TIME:   0.156 TIME LEFT:  2.00D  GRAD.:     3.392 HEAT:  242.7853
 CYCLE:   164 TIME:   0.137 TIME LEFT:  2.00D  GRAD.:     6.187 HEAT:  242.7467
 CYCLE:   165 TIME:   0.145 TIME LEFT:  2.00D  GRAD.:     5.765 HEAT:  242.7006
 CYCLE:   166 TIME:   0.137 TIME LEFT:  2.00D  GRAD.:     4.267 HEAT:  242.6457
 CYCLE:   167 TIME:   0.109 TIME LEFT:  2.00D  GRAD.:     6.633 HEAT:  242.6089
 CYCLE:   168 TIME:   0.113 TIME LEFT:  2.00D  GRAD.:     3.283 HEAT:  242.5814
 CYCLE:   169 TIME:   0.113 TIME LEFT:  2.00D  GRAD.:     5.432 HEAT:  242.5505
 CYCLE:   170 TIME:   0.117 TIME LEFT:  2.00D  GRAD.:     4.958 HEAT:  242.5189
 CYCLE:   171 TIME:   0.223 TIME LEFT:  2.00D  GRAD.:     5.491 HEAT:  242.5036
 CYCLE:   172 TIME:   0.109 TIME LEFT:  2.00D  GRAD.:     2.480 HEAT:  242.4889
 CYCLE:   173 TIME:   0.113 TIME LEFT:  2.00D  GRAD.:     2.091 HEAT:  242.4744
 CYCLE:   174 TIME:   0.141 TIME LEFT:  2.00D  GRAD.:     2.309 HEAT:  242.4482
 CYCLE:   175 TIME:   0.141 TIME LEFT:  2.00D  GRAD.:     4.705 HEAT:  242.4219
 CYCLE:   176 TIME:   0.113 TIME LEFT:  2.00D  GRAD.:     6.077 HEAT:  242.3962
 CYCLE:   177 TIME:   0.215 TIME LEFT:  2.00D  GRAD.:     5.002 HEAT:  242.3902
 CYCLE:   178 TIME:   0.113 TIME LEFT:  2.00D  GRAD.:     3.393 HEAT:  242.3856
 CYCLE:   179 TIME:   0.203 TIME LEFT:  2.00D  GRAD.:     2.829 HEAT:  242.3741
 CYCLE:   180 TIME:   0.102 TIME LEFT:  2.00D  GRAD.:     4.985 HEAT:  242.3669
 CYCLE:   181 TIME:   0.117 TIME LEFT:  2.00D  GRAD.:     3.261 HEAT:  242.3516
 CYCLE:   182 TIME:   0.094 TIME LEFT:  2.00D  GRAD.:     2.226 HEAT:  242.3388
 CYCLE:   183 TIME:   0.141 TIME LEFT:  2.00D  GRAD.:     2.054 HEAT:  242.3151
 CYCLE:   184 TIME:   0.148 TIME LEFT:  2.00D  GRAD.:     2.908 HEAT:  242.2869
 CYCLE:   185 TIME:   0.117 TIME LEFT:  2.00D  GRAD.:     6.058 HEAT:  242.2522
 CYCLE:   186 TIME:   0.129 TIME LEFT:  2.00D  GRAD.:     5.478 HEAT:  242.2123
 CYCLE:   187 TIME:   0.125 TIME LEFT:  2.00D  GRAD.:     4.459 HEAT:  242.1769
 CYCLE:   188 TIME:   0.109 TIME LEFT:  2.00D  GRAD.:     3.299 HEAT:  242.1532
 CYCLE:   189 TIME:   0.117 TIME LEFT:  2.00D  GRAD.:     2.672 HEAT:  242.1414
 CYCLE:   190 TIME:   0.117 TIME LEFT:  2.00D  GRAD.:     3.945 HEAT:  242.1257
 CYCLE:   191 TIME:   0.117 TIME LEFT:  2.00D  GRAD.:     2.517 HEAT:  242.1138
 CYCLE:   192 TIME:   0.125 TIME LEFT:  2.00D  GRAD.:     3.129 HEAT:  242.1051
 CYCLE:   193 TIME:   0.125 TIME LEFT:  2.00D  GRAD.:     3.623 HEAT:  242.0905
 CYCLE:   194 TIME:   0.113 TIME LEFT:  2.00D  GRAD.:     2.527 HEAT:  242.0794
 CYCLE:   195 TIME:   0.113 TIME LEFT:  2.00D  GRAD.:     1.730 HEAT:  242.0778
 CYCLE:   196 TIME:   0.113 TIME LEFT:  2.00D  GRAD.:     2.048 HEAT:  242.0714
 CYCLE:   197 TIME:   0.094 TIME LEFT:  2.00D  GRAD.:     0.998 HEAT:  242.0646

     GRADIENT =  0.99780  IS LESS THAN CUTOFF =  1.00000



 -------------------------------------------------------------------------------
 EF PM7 XYZ HESSIAN QUARTET UHF CHARGE=1
 1000_C40_4



     GEOMETRY OPTIMISED USING EIGENVECTOR FOLLOWING (EF).     
     SCF FIELD WAS ACHIEVED                                   


                              PM7 CALCULATION
                                                       MOPAC2016 (Version: 16.299L)
                                                       Thu Nov 10 15:54:10 2016
                                                       No. of days remaining = 350




          FINAL HEAT OF FORMATION =        242.06423 KCAL/MOL =    1012.79672 KJ/MOL


          TOTAL ENERGY            =      -5128.32486 EV
          ELECTRONIC ENERGY       =     -54348.52729 EV  POINT GROUP:     C1  
          CORE-CORE REPULSION     =      49220.20243 EV
          COSMO AREA              =        435.41 SQUARE ANGSTROMS
          COSMO VOLUME            =        599.25 CUBIC ANGSTROMS

          GRADIENT NORM           =          0.99780
          IONIZATION POTENTIAL    =          9.759656 EV
          ALPHA SOMO LUMO (EV)    =         -9.760 -3.340
          BETA  SOMO LUMO (EV)    =        -10.180 -3.389
          NO. OF ALPHA ELECTRONS  =         89
          NO. OF BETA  ELECTRONS  =         86
          MOLECULAR WEIGHT        =        505.5655

          MOLECULAR DIMENSIONS (Angstroms)

            Atom       Atom       Distance
            H    47    H    25    12.05051
            H    47    H    25    12.05049
            H    55    H     5    10.56720


          SCF CALCULATIONS        =        246
 
          WALL-CLOCK TIME         =         26.758 SECONDS
          COMPUTATION TIME        =  1 MINUTE AND 40.374 SECONDS




   ATOM   CHEMICAL          X               Y               Z
  NUMBER   SYMBOL      (ANGSTROMS)     (ANGSTROMS)     (ANGSTROMS)
 
     1      Co          0.11491331  *  -0.09108678  *   0.24586303  *
     2       C         -0.00160897  *   0.00602580  *   1.78033204  *
     3       N         -0.21752253  *  -0.14180536  *   2.98003698  *
     4       C          0.00223927  *   0.53365506  *   4.22477606  *
     5       H          0.66867906  *  -0.07974306  *   4.86519142  *
     6       H         -0.96365523  *   0.64197022  *   4.75866379  *
     7       H          0.45261862  *   1.53424788  *   4.10916950  *
     8       C         -0.12552945  *   4.80959398  *  -0.66877175  *
     9       C          0.87762418  *   4.06467795  *  -1.27987864  *
    10       C          1.03486241  *   2.71808875  *  -0.93189156  *
    11       N          0.23508315  *   2.10473733  *  -0.02144894  *
    12       C         -0.72287147  *   2.85536791  *   0.59203444  *
    13       C         -0.93446202  *   4.19890137  *   0.29232195  *
    14       H         -0.27849825  *   5.85947073  *  -0.93186712  *
    15       H          1.53655441  *   4.51303942  *  -2.02403660  *
    16       H          1.81650947  *   2.08810262  *  -1.39055974  *
    17       H         -1.32210597  *   2.31975520  *   1.34118213  *
    18       H         -1.71486938  *   4.76105387  *   0.80424295  *
    19       C          5.03789949  *   0.15353477  *  -0.24058976  *
    20       C          4.37226272  *  -0.94680338  *  -0.76951598  *
    21       C          3.01631327  *  -1.13064179  *  -0.47216210  *
    22       N          2.32044149  *  -0.26699145  *   0.31364079  *
    23       C          2.99449794  *   0.78865166  *   0.84931110  *
    24       C          4.34202210  *   1.03213431  *   0.59298397  *
    25       H          6.09214237  *   0.32825359  *  -0.46911872  *
    26       H          4.88493495  *  -1.65728896  *  -1.41802262  *
    27       H          2.45215954  *  -1.98879614  *  -0.86772610  *
    28       H          2.39490653  *   1.43959382  *   1.49800513  *
    29       H          4.84127590  *   1.89172786  *   1.03758531  *
    30       C          0.08108683  *  -5.04993550  *  -0.10480060  *
    31       C         -0.69636056  *  -4.30426706  *  -0.98698912  *
    32       C         -0.77116974  *  -2.91821950  *  -0.82039226  *
    33       N         -0.11218155  *  -2.26841845  *   0.17484203  *
    34       C          0.63208423  *  -3.01120821  *   1.03985488  *
    35       C          0.75426357  *  -4.39585932  *   0.92763843  *
    36       H          0.16143054  *  -6.13418217  *  -0.21727357  *
    37       H         -1.23593758  *  -4.78441384  *  -1.80289711  *
    38       H         -1.36669747  *  -2.28407870  *  -1.49357689  *
    39       H          1.12953997  *  -2.43825084  *   1.83632113  *
    40       H          1.36279746  *  -4.95228416  *   1.63966259  *
    41       C         -4.86858863  *   0.00675884  *  -0.32677552  *
    42       C         -4.07442411  *   0.84243712  *  -1.10973701  *
    43       C         -2.69075760  *   0.82806055  *  -0.92163198  *
    44       N         -2.08315328  *   0.02917897  *  -0.00717343  *
    45       C         -2.87128555  *  -0.77341102  *   0.75818275  *
    46       C         -4.25977587  *  -0.81230997  *   0.62332762  *
    47       H         -5.95423659  *  -0.00487146  *  -0.45423830  *
    48       H         -4.51859008  *   1.49706081  *  -1.85975131  *
    49       H         -2.01500339  *   1.46520439  *  -1.51604510  *
    50       H         -2.33391970  *  -1.38593581  *   1.49902367  *
    51       H         -4.85290327  *  -1.47137006  *   1.25762818  *
    52       S          0.59140032  *  -0.27004999  *  -1.99025713  *
    53       C         -0.25375683  *   0.13237619  *  -3.64073767  *
    54       C          0.74751118  *  -0.28309633  *  -4.71393238  *
    55       H          0.34083149  *  -0.11210975  *  -5.71894983  *
    56       H          1.01009618  *  -1.34775466  *  -4.64590121  *
    57       H          1.68908570  *   0.27744367  *  -4.64220046  *
    58       C         -0.52662303  *   1.63126558  *  -3.72111536  *
    59       H          0.39692540  *   2.21703329  *  -3.62407629  *
    60       H         -1.22185366  *   1.98292855  *  -2.95376771  *
    61       H         -0.96232730  *   1.89182261  *  -4.69692562  *
    62       C         -1.53940287  *  -0.67765004  *  -3.76867425  *
    63       H         -1.33990168  *  -1.75746024  *  -3.76124124  *
    64       H         -2.03843040  *  -0.45974978  *  -4.72447111  *
    65       H         -2.26075096  *  -0.46687120  *  -2.97600360  *

                             CARTESIAN COORDINATES

   1   Co        0.114913312    -0.091086779     0.245863026
   2    C       -0.001608973     0.006025800     1.780332036
   3    N       -0.217522533    -0.141805365     2.980036984
   4    C        0.002239266     0.533655061     4.224776060
   5    H        0.668679063    -0.079743064     4.865191416
   6    H       -0.963655234     0.641970218     4.758663788
   7    H        0.452618617     1.534247880     4.109169505
   8    C       -0.125529452     4.809593976    -0.668771751
   9    C        0.877624181     4.064677948    -1.279878639
  10    C        1.034862409     2.718088746    -0.931891559
  11    N        0.235083151     2.104737333    -0.021448936
  12    C       -0.722871471     2.855367907     0.592034445
  13    C       -0.934462023     4.198901368     0.292321951
  14    H       -0.278498251     5.859470734    -0.931867115
  15    H        1.536554412     4.513039422    -2.024036596
  16    H        1.816509467     2.088102624    -1.390559740
  17    H       -1.322105971     2.319755200     1.341182128
  18    H       -1.714869383     4.761053871     0.804242953
  19    C        5.037899493     0.153534772    -0.240589761
  20    C        4.372262721    -0.946803378    -0.769515976
  21    C        3.016313267    -1.130641786    -0.472162100
  22    N        2.320441487    -0.266991450     0.313640787
  23    C        2.994497942     0.788651665     0.849311104
  24    C        4.342022096     1.032134312     0.592983970
  25    H        6.092142372     0.328253587    -0.469118724
  26    H        4.884934951    -1.657288960    -1.418022617
  27    H        2.452159538    -1.988796140    -0.867726104
  28    H        2.394906530     1.439593819     1.498005127
  29    H        4.841275905     1.891727856     1.037585315
  30    C        0.081086829    -5.049935501    -0.104800601
  31    C       -0.696360565    -4.304267061    -0.986989123
  32    C       -0.771169741    -2.918219505    -0.820392261
  33    N       -0.112181548    -2.268418447     0.174842028
  34    C        0.632084226    -3.011208210     1.039854880
  35    C        0.754263570    -4.395859321     0.927638429
  36    H        0.161430537    -6.134182168    -0.217273571
  37    H       -1.235937581    -4.784413838    -1.802897105
  38    H       -1.366697468    -2.284078697    -1.493576893
  39    H        1.129539969    -2.438250839     1.836321131
  40    H        1.362797458    -4.952284156     1.639662594
  41    C       -4.868588633     0.006758843    -0.326775523
  42    C       -4.074424107     0.842437121    -1.109737006
  43    C       -2.690757601     0.828060554    -0.921631979
  44    N       -2.083153284     0.029178972    -0.007173427
  45    C       -2.871285551    -0.773411016     0.758182746
  46    C       -4.259775866    -0.812309967     0.623327625
  47    H       -5.954236589    -0.004871463    -0.454238303
  48    H       -4.518590077     1.497060808    -1.859751312
  49    H       -2.015003385     1.465204391    -1.516045102
  50    H       -2.333919698    -1.385935815     1.499023665
  51    H       -4.852903271    -1.471370061     1.257628184
  52    S        0.591400320    -0.270049990    -1.990257132
  53    C       -0.253756834     0.132376186    -3.640737665
  54    C        0.747511177    -0.283096332    -4.713932378
  55    H        0.340831490    -0.112109749    -5.718949833
  56    H        1.010096182    -1.347754664    -4.645901209
  57    H        1.689085699     0.277443675    -4.642200464
  58    C       -0.526623026     1.631265581    -3.721115361
  59    H        0.396925401     2.217033288    -3.624076294
  60    H       -1.221853659     1.982928554    -2.953767714
  61    H       -0.962327295     1.891822607    -4.696925620
  62    C       -1.539402869    -0.677650039    -3.768674248
  63    H       -1.339901680    -1.757460237    -3.761241242
  64    H       -2.038430403    -0.459749780    -4.724471108
  65    H       -2.260750956    -0.466871204    -2.976003601


           Empirical Formula: C26 H32 N5 Co S  =    65 atoms

    Hessian matrix from geometry optimization
  323.1681
    2.0412  309.6415
  -26.5117   30.7377  585.5044
  -91.7496  -18.9205  -39.8745  298.7929
  -16.3542  -93.6199  -52.9298   51.9848  355.3666
   34.1046   22.9792 -203.0631 -178.5981 -140.4346 2114.4545
   -5.4903   -4.2247   57.2187 -108.5228  -34.1022  165.6409  397.4119
   13.7237    3.4092   35.2338  -39.8790 -135.4990   91.9773   63.6456  398.0415
  -35.1790  -71.0585 -120.5677  227.9927  186.5684-1801.7648  -16.4740   68.2333 2972.5555
  -30.8822  -12.0130   -1.2741  -14.6463    3.3211   47.4304 -198.5083  -43.1013 -221.7840  768.2696
    5.4910  -22.0248   -6.7282  -11.4864  -15.3184   85.7677  -53.0280 -214.1234 -294.2100   17.7009
  860.3862
    4.6655   32.7940  -38.6635   -2.0339    0.9538  -12.1035 -135.8998 -137.4530 -689.6647   73.7930
  111.2885 1116.3652
    8.0484    7.6368   -8.9332    4.1125  -30.1836   12.6457  -10.3803  -29.6521 -121.1289 -186.7251
  186.0801  -69.1180  384.8064
   -1.0537   -3.7538   -7.0994  -11.0191   22.1017   -5.3643    8.4572   38.1072   53.7823  124.6567
 -260.7632   94.1608 -192.8632  367.9299
   11.7967   -0.1023  -12.1661  -10.2345  -34.3472    0.2111  -34.8187    3.3879 -109.9206  -44.9113
   97.5759 -114.5410  132.8603 -117.7756  270.3017
   19.4838    0.3907  -19.9694    8.1553    7.8706  -35.7800   47.1074   17.3427  120.1490 -284.2733
  -22.0740  165.7954  -34.4176    8.0650  -43.5494  421.6488
    2.0715   -0.2320  -10.7406    2.8090   -0.4498    2.9966    8.2863    3.1516  -47.0118   -1.2450
  -76.1307    6.5012  -11.6777   -1.8169    9.2084  -33.8432  193.0462
  -11.9953    1.3341   15.4401  -11.6370   -5.2254   25.0469    2.6105  -13.4761 -189.1522  156.9629
   -9.6467 -145.6083   16.7918  -16.8393   25.2263 -206.0272   19.1518  339.2168
    2.4757   18.9475    6.8701    4.3092    8.0583   -1.1317  -13.0945  -28.3084  -43.3200 -114.2625
 -115.3261   -8.5005   16.4315  -18.1640   23.7509  -15.0581    4.0596    7.7828  263.4774
   11.4726   33.2341    7.3320   15.8107    7.3530  -28.9827  -44.8333  -21.7494  -37.0761 -106.1942
 -293.7680  -34.3249   24.3680   -0.7895   35.1108  -26.0835   19.1682   41.1633  139.7093  478.1097
   -5.8702   -7.6261   18.7831   -0.9220    5.6782  -16.4222  -40.1305  -48.3882    2.1076    5.2874
   19.9677  -79.9221   17.8010   -5.6580  -11.0200    4.2488    7.9313   -2.6622    9.0040   16.5958
  168.0952
   -4.9727   46.0279  -41.2364   10.7051  -29.4965   50.0720  -17.9111   -1.1066  -80.0712   -9.0282
   14.6761   31.2664   17.6641  -18.4676    5.6974   -1.4416   -8.1581   -2.7901   15.4404   24.2866
    5.7448  991.7141
  -12.7540  -67.0183  -36.8087    8.2621   32.5088    5.7933    5.7672   -8.2423    9.9716  -11.7173
   -1.0221  -33.2913   25.3475  -18.5343   26.5591  -44.2468   14.2832   41.5901    3.2144    6.3394
   -7.0825 -195.7832 1378.0700
  -21.0328  -21.1317  -12.1294  -14.5845  -18.6717   -4.0325    9.7775   35.6161    3.8845  -14.3510
   28.7791   -1.2689  -10.6246   -9.3537    6.2714   -2.0884   -2.8325   -7.8611  -23.1933  -11.0459
   -0.7879 -592.9251   36.4299 1401.2438
   -5.0776  -41.9865   40.3397   -8.0169   57.7097  -37.7920   36.8974  -34.7738   78.9921  -46.2235
  -45.5191  -62.5161  -10.3397    7.2079   -3.0062  -15.5060    6.4776   32.9966   -1.9731  -12.8999
   -0.4710 -549.0200  344.8093  253.9578  996.3598
   -1.4281   14.3656   -9.4125   13.3350   15.5031   22.7449    0.1598  -22.1483  -65.7543    7.4436
   12.1339   39.1042    8.3731    9.8401  -18.4313   11.1662    6.9451  -11.7220   12.0001    9.7711
   -4.0058  191.1373 -429.2860 -270.7676 -246.4053 1555.1321
   12.6974   26.2317  -38.2275    6.1921   -8.1423    3.2721  -35.8221   -1.7053  -29.6635   41.5513
   64.9258   -2.8115   15.7416   -1.4133    5.6271   19.6594    1.9206  -26.6062   -7.0407   -7.9478
    2.1616  352.9006 -433.3035 -568.2436 -592.9162  163.8105 1249.3061
  -23.2500   16.6516    3.7534    9.5574   -9.4775   -4.2608   -5.4737  -25.8789  -18.9441   11.8498
   11.4404   45.7739   -3.9332    4.6248  -21.8979   -7.3480   -0.6748    5.5359   13.7940   12.3052
   -3.4225  -20.9734   34.1820   -7.2033 -234.8833  160.0084   26.7441  891.3031
   -8.0473  -25.0080   33.0250   -8.5645  -27.6617  -15.6251    8.5994   12.9884   82.2174    8.4143
   -0.1975  -21.9098  -33.7855   15.4328  -22.1401   26.9349  -12.9221  -23.7583   -9.2739  -22.7162
    4.9096  110.9155  -99.6898 -158.0121   18.3607 -793.6018   43.5551  -74.5857 1524.5976
   13.9780    3.3209  -16.5745    1.2889   13.0531    9.2329   10.5671   -0.7997    8.4723   -4.9055
   23.7078  -31.5559   12.2611   -9.4675   18.9347   -0.2097   -4.1196   -0.8055   -7.9534  -11.9115
   -1.9705   28.4872  -59.9542   16.8858   47.3390  -58.0499 -126.0303 -465.7680  -98.9766 1157.8919
   -4.7740   11.6795  -54.1589   -4.1132   -0.3671   58.6225  -18.4575    4.5590 -116.2272  -28.4981
    7.2986  -16.1233   74.6997  -61.6398   52.0606  -41.2360   14.6577   31.8311   20.5319   46.8613
   -7.3966   60.9826   12.4263   23.7722  -22.8405 -136.7842   78.7861 -334.0013 -115.8890  228.7724
 1026.9950
  -32.6603  -57.1867   75.8134   12.4937   25.1520  -96.0636   35.4578  -23.3828  187.6502   -4.1238
  -59.6185  -27.2290  -74.4465   61.1925  -59.6966   52.6056  -12.4425  -27.9785  -13.6204  -35.7523
   -1.1125  -39.7068  -29.1714    7.2051   62.9496 -123.4624   58.8896 -197.7969 -288.6974  321.0478
 -247.1028 1215.8595
   -8.8853   -8.3063  -29.0826    0.1408    0.8647    0.2153   23.8118  -12.3435   47.9832    2.2555
   22.8745   -0.0651  -21.2156   20.6926  -25.6867   28.9632   -7.3481  -19.9843   -6.8269  -31.2362
  -10.3773  -40.5316   40.2022  -58.1476   44.4990  182.2112  -89.6406  284.8812  309.3487 -608.0520
 -708.8906   66.7743 1551.2780
   -6.4544   -7.8852   52.5039  -22.1148    6.5746  -32.3667   33.4726   -7.7190   76.0229  -37.5446
  -27.1859  -17.8038  -33.9959   13.7539  -31.9001   36.1963  -18.7058  -18.5160   -5.3137  -32.0570
    8.6799  -27.4860   19.6782    0.1637  117.4299  -17.7057  -54.0916 -123.7303   48.6632  140.5573
 -569.1011  385.0072  389.9854  990.1774
    0.5703  -17.9494  -27.1606    7.5957  -11.5428   81.1423  -10.3666   -4.0424  -60.0717  -26.2654
  -10.5643    4.6675   11.2336  -21.2175   -4.1075   21.6290   -9.7811  -11.0769   16.4717   22.6769
   16.3063  -61.8126 -188.1493  176.0589  -85.3576   31.7614   63.8255   63.3220   75.5181  -26.1515
  211.3405 -453.0826 -285.9465 -252.8228 1553.7966
    1.3645   -6.8710  -16.5048   22.6757   32.0743  -38.1238  -36.8718    4.4715  -11.4414    9.7065
   32.4094  -12.3202   20.8402  -22.8071   36.1395  -57.1790   11.1057   32.8594   -8.8043    7.3108
    3.5914   29.0736   42.5089   -9.7515    1.4326  -15.7896   -1.9740  114.6824  -42.9909 -150.5155
  311.3377 -356.8052 -634.8013 -524.6331  100.0222 1153.3452
  -32.7958    9.8597   15.8566   23.8612  -33.4423  -14.2300  -39.9626   17.3413   10.9452   -5.2329
    1.1071   48.4751  -14.4063    2.6615   -7.7684   49.5615  -21.9774  -56.9489  -14.5104  -23.4926
    2.0364 -293.0965 -217.8501  264.0571 -156.8888  109.0784  153.7238   33.2741  -13.9636  -18.9291
  -23.1185   39.9328   32.5210 -233.7492  134.4764  -13.0711  834.2130
   11.7121  -29.3091    0.2805  -30.3328    1.1224  -28.2361   17.2612    2.0082   13.9939  -10.3824
  -22.7556   -5.7290    3.6271    3.9252   11.6489   -6.1185   13.1706    7.8685   -2.2456   12.4692
    1.3480 -112.1937 -220.3159  152.4365   51.7886   38.5892   25.6621  -48.2773  -28.8791   13.6383
  114.2226 -106.3846 -161.7964   11.5394 -794.6941   76.6563  -93.1671 1448.9006
   24.0351   15.9294  -36.3655    2.2190   27.0619   12.8077  -19.0860   -5.0460  -18.9931  -19.1853
   40.0514  -35.9975   24.1892  -21.6818   18.9344  -32.5894   10.8150   27.0962   -0.3031   10.5307
    2.4802  252.0095  327.3485 -667.4084  132.9896  -54.3370 -166.9217    2.5278   11.7057  -18.8552
   61.5687 -108.6527   14.8277   -8.3605  -66.2676 -120.6783 -480.5837  -71.9464 1200.9022
   -0.3869    7.7310   -1.4267    0.3785   -8.9540    3.5528   -4.9249    6.1015  -24.3858    0.5365
    1.0372    7.2815    8.3390  -11.4265    8.4360   -7.1813   -4.4987    0.4355    0.8559    3.4521
    4.5755  -62.4974   14.1429    5.6717  -16.2852   25.6288    9.4726   14.7731  -12.1219   -6.9926
    2.8759  -19.6127    3.7986  -14.5200   26.6642    4.5529   28.4980  -41.9223   -2.4295  180.9338
   25.5371   20.9897   25.3708   -2.6903    5.1674  -31.5104  -23.4752   16.3244   33.9929    7.7748
  -32.1609   11.1851  -25.2449   19.9105  -17.3039    6.7362    2.5676  -10.5349    0.4570   16.0426
    7.7450   34.2648 -433.6707    4.0233   -6.7524  -24.5409   -2.4010   -2.7351   24.3720    1.1877
   28.4620   31.9558  -41.3909  -25.8264   35.2159   25.5627  -11.1088  -49.8676   23.7328  -21.0759
  530.1514
   -5.2795   -2.2067   -3.0114    2.0362   -0.5125    5.4806   -1.8536   -0.3639   -0.8096   -9.3330
    9.0826  -15.5869    0.8129   -1.3588   10.3730  -16.6104    2.9145   -0.2534   -9.9958   -0.4774
   -3.9454   -9.8535   16.5487  -67.8770   24.7873  -18.4771    8.1700    9.7601   16.2955    1.4204
   -2.1576    4.4079  -12.6548   12.0259  -13.8743   -9.2486   -0.2910   21.5842    4.8699   -9.5118
  -23.2670  188.7627
   10.8488   10.1666  -29.7554   -2.1251  -12.9999   11.3471  -19.8455   26.1010  -68.7387   11.8271
   27.2280   12.5337   33.6655  -27.1894   22.5256   -8.7964    0.6493    1.9996    5.6452   10.1674
    1.5991   36.9303  -21.9767   21.4961 -201.6697  -10.3640  163.5806   33.8230  -44.8162   -2.6403
   54.7672  -70.4798  -33.7899  -52.8972   25.6312    5.7158   49.4120  -23.7673  -30.1542    7.5556
   10.8282   -5.2770  287.2847
   13.1121   12.3848  -31.6196   -1.4642   -5.1778   -2.1984  -18.7570   16.9028  -17.3583   14.9677
   21.6126   -1.9482   18.5100   -3.8123   14.1276   -5.3802   10.0122   -2.0663    2.8831   14.4347
   -3.9234   37.2380   10.3151   11.4292 -112.7256 -117.6727  155.3892   -0.2464  -46.3179   33.4179
   49.0491  -17.3179  -65.8778  -26.5102    8.7773    1.5709   29.8250  -13.8040  -21.5222   13.4804
    0.7715   -6.9940   94.1270  280.7688
  -20.1779  -17.0948   42.0769   -6.1900   10.9261   13.3372   38.2207  -27.8780   43.0613  -35.1810
  -13.0488   -8.3431  -28.4165   17.6130  -25.3824    9.2666   -5.3021   -3.6263   -9.7356  -22.7816
   -7.7496   -4.5877   12.4516  -51.6791  202.4544  121.8735 -333.3604   -4.9352   75.1935  -15.3774
  -82.5343   33.7596   86.8512   53.5251  -29.4528  -10.6610  -39.5747  -16.0508   66.0094  -12.6277
   -7.6795   13.9620 -163.6216 -152.8638  467.3697
   -1.8567  -36.7084    0.5493    6.0605   22.0947  -18.3352    1.0344    2.7509   57.3339   -5.0000
   -7.9083  -19.4180  -17.3552    8.5130  -13.4992   23.9998  -10.7623  -19.3009   -8.3089  -23.9532
   -2.1004  -10.6077   -9.5655  -11.6371   42.2843   10.1498   10.7566 -191.2249  121.2835  128.3015
  -52.9116   92.8192   60.5508   73.7217  -27.0583  -39.7815   11.2036   21.0039  -26.5001   -1.1969
   -1.9803   -3.2420  -22.6708   -7.7105    8.2105  328.1824
   -6.6187   21.5806    8.3386   -5.2992   -6.9121    0.4766   10.1780   -7.5487   -8.7094   -9.5416
   -1.8222   -0.5725    5.9507    3.7278   -5.9310   -6.3881    8.9342    7.7389    9.0756   14.7240
   -5.2447  -18.0409   28.1954   43.0227   43.9808  -40.9780  -51.7644  127.8024 -168.1502 -152.6035
  -23.2330   17.4967   -1.6722   -5.4499  -10.9459   17.0437  -21.1522   -9.7187   31.4697    9.7017
   14.3487   12.5286  -10.1573  -10.7375   16.4869 -107.8553  311.0222
   -5.2761   22.0304   13.0468  -10.5886  -15.0569    4.5243   -5.4554  -21.3435  -16.1378   -4.1916
    1.1722    5.6623    8.2490   -5.0098    5.8297   -8.7230    5.3432   12.5579    1.2172    6.3584
   -5.3577  -16.1925   42.6945   34.5479    3.7946  -31.5137  -19.0441  127.5046 -174.5733 -239.8444
   48.7598  -31.2435  -84.6532  -35.3666   25.7411   65.6790  -16.7483    7.9853   33.5446    1.2911
    7.6428   19.3544  -16.7412    1.5372   -2.6953 -129.3641  141.2417  362.7754
   -0.3946   13.3038   -3.5832    7.9790    6.7188  -12.1440   -9.8179   -1.4007   -0.3484    2.8165
    6.2046    7.6119   -1.2736   -2.8636   -0.8260    7.9082   -3.4708   -3.5330   -0.9289   -6.3578
    3.1933   16.3950  -16.8918  -20.3847   -4.9172   30.2544    2.9553   24.5899   -2.4528   -2.9603
  -43.8469   13.8623   38.2994 -109.7261  -41.0362   79.7487   24.8046  -15.9871   -2.4105    7.7205
    7.1002   -1.8637    2.3822    3.0176   15.8268   -9.0683    5.9711   -1.3519  240.2896
    3.5294   14.0226    0.7559    8.8723    0.4601  -31.1077  -17.4330   12.7661    4.8459   15.2629
    0.0615   14.8788    0.5410   -0.5646    2.7864   -3.3557    3.5528    6.7970    1.6738    6.6769
    2.3183   27.0797    5.7281  -35.0415   -2.9622  -12.4122  -22.8267   20.4724  -25.1289  -19.3286
   10.7377   21.0433  -15.2707  -89.3221 -148.9616  146.4486   -6.9093  -55.0499   38.7775    0.7069
   25.2993   -1.1890    1.3299    8.8407  -15.6122   -7.9790    4.7788  -13.1410   68.4892  278.0954
    1.6193  -12.2986   14.2982  -17.3494   -6.0291   56.6664    9.6362  -18.9297  -23.5273  -24.3846
   -4.0242    3.2561   -4.2123   -8.2351   -4.6426   12.6646   -5.2342    2.6917    2.6192   -2.5001
   11.4112  -15.2488  -35.0685    7.2578  -24.0034    1.1205   56.5713  -18.3824  -20.1457   52.9557
   58.3830    6.5663  -64.0289   84.8249  145.9377 -251.0260   -3.6312   40.0268  -25.3537    3.0878
  -29.3163   13.6128    2.5290   -5.7570   12.1986   -2.8474    6.0925   28.1594 -112.0893 -142.1724
  375.8192
    3.9063  -24.3355    6.5419  -17.3219   21.8746   -2.1068   30.2218  -13.0925   25.8542  -25.2283
  -19.1872  -19.6680  -15.1950    2.3019  -15.3255    3.7462   -6.5981    0.2652   -4.1046   -9.1810
    0.4222  -25.8900   38.1319   22.7393   88.3411  -39.8984  -56.3854   -0.6508   20.9585  -21.4098
  -26.6283   46.3557   15.6366   37.8699    5.7842   12.2993 -217.2237  127.3164  136.0735  -16.5285
  -14.7173   -3.3384  -34.2895  -21.1259   26.2133   25.3784    6.9545    0.2934    1.7839   -1.0627
  -10.2616  338.3638
    1.3618   14.9823    0.1203    7.8316  -19.7042   -0.9030  -28.4612   11.4310  -36.4790   22.7279
   -0.0758   26.3847   15.1801  -10.2961   19.8601  -12.3733    3.3394    7.5957    2.9673   10.4049
    4.0385   -7.0667    8.2148   35.5916  -47.3712   -5.2084   19.9273   -6.4944  -27.6716    9.8276
   33.8639  -20.4016    4.1372   -5.1282  -43.3268  -23.4688  120.6360 -163.6485 -156.3821    3.7519
    5.3416    8.3529   33.6088   22.8267  -34.3407  -13.6153   -1.3636   -4.4056   -4.2586   -7.7547
  -10.0147 -136.3017  310.5232
   -0.8608   14.1627  -10.3460    0.2236  -20.4567   26.4649  -14.5450   -1.0450  -59.1879    7.4549
    9.6401   16.6043   18.6385  -12.7525   32.1363  -32.0350    4.0381   12.7904   -5.6921    3.4878
   -7.9759   45.1249  -10.7398   -3.2491  -31.3657   10.5814   41.9754  -22.0207    2.7767   19.4891
   57.3956   -1.9826  -21.1294  -30.9455  -27.2736   14.7601  126.5260 -146.7513 -273.7551   11.7748
   10.0333    7.7058   28.1587    2.6864    6.3607  -10.3951   -2.7293   12.2191  -21.5195    2.8082
   -0.6305 -176.5649  157.1426  395.4401
   -7.7850   -4.1501   -0.5035  -20.3773    0.4100   19.7548   18.3212  -30.1841   20.6985  -27.3943
   38.1829  -19.5731   -8.0888   12.3719   -3.8197   17.1482    0.5111  -22.8012  -21.0026  -36.9356
  -14.1918  -31.9282   31.2578  -67.0861   95.7560  -37.9500  -12.7535   -9.1272   44.0401   24.3201
 -101.1163   68.3526   52.3747   40.7778  -30.3500   -1.1254  -41.7974   20.8456   26.8550  -21.5187
  -19.0181    3.7407  -42.9071  -14.2280   44.0000   37.8055   -4.3278  -22.2093    9.1807  -19.1794
   19.7892   28.5023  -35.5995  -14.4894 1429.2669
    1.7909    2.0354   -6.9962  -22.2694  -26.4493   47.6845  -20.1216  -14.2146 -108.7057   29.2142
    1.9032   51.2135   -6.3521   -4.6584    6.9287  -18.6168   -5.1359    9.2454   -1.4323    3.4570
   -0.8343    6.2485   -6.1334   12.6595   10.6611   12.5539  -27.1296   48.7182  -13.1230  -23.3779
   39.5327  -34.6987    2.3223  -61.1305    0.7362   33.0724   40.2205  -18.7422  -30.2200   10.7141
   -0.3627    1.6353   13.2009  -12.4217   12.1936  -26.5845    5.6506   12.1145    8.7657   26.5079
  -26.5744  -31.8077   38.0978   24.4536   -1.6463 1493.1772
    4.2178   26.7000  -32.3012   -3.8369  -24.4594   35.2157  -24.6998    4.4808  -88.9133   67.2680
    5.1862   36.4610    5.1387   -3.4767    0.6829  -24.0568    2.0221   24.6365    8.6428   12.0899
   -3.1933   16.5497   -5.3983   32.0850  -80.2790   38.1576   -4.6627   31.7398  -29.1986  -46.3628
   86.4643  -83.3342  -46.3435 -108.3257   30.4816   42.4634   58.5608  -43.1957  -29.2706   10.4184
   -6.2143   -1.0587   20.5006    3.8099  -21.5220  -39.8716    8.2516   21.6424    6.1913   19.5682
  -20.9831  -47.4950   42.8087   33.3617 -221.9913  409.6666  675.3937
    0.2539  -33.6158   -2.8063  -13.3546   10.9715   33.1202  -10.8376    9.1129   14.7885  -13.1647
   -8.5652  -18.7018  -15.1736    5.6661  -17.4606   23.9949   -4.3065   -9.8883    2.3112   -1.6543
    5.0251  -32.1395   28.2633   -7.3171   58.0305  -15.5087  -32.9529  -42.4051   23.9292   17.6336
  -59.0040   69.5438   34.0303   56.9443   52.2792  -34.7737  -44.5524  -74.5684   25.3811  -21.6667
   -5.3343   -6.0756  -48.1784  -21.3499   32.8991   25.2690   -9.4538  -17.5620   -2.0350  -15.4321
   16.3627   23.8429  -26.2556  -19.1891 -273.3298 -255.3532  -24.2577 1499.7982
   -3.3857  -26.6616   -7.2339    3.4845    6.7479    2.0860  -12.0339   -0.2304   26.2679   13.3712
  -35.0578   -4.4834  -28.1197    5.6418  -26.5322    2.6154  -12.2272   -1.0201    7.5809    8.4657
   13.1715   32.0973  -48.9969   47.5545  -22.1755  -39.9795   -5.2571    2.2465  -14.4652  -17.7391
   20.0136   11.7671  -30.4914    8.0670  -19.1711  -16.6871   36.6397   -1.6041  -10.2109   -1.8344
   38.0062  -13.7642   12.1533    6.3237  -24.0180  -15.8266    6.3055   18.9980   -4.3811   12.1645
   -5.4659  -12.8962    5.5707   -5.0853 -370.7793 -632.1838 -113.5003  133.7911 1249.6229
    3.0071    1.6694  -25.7814    7.8459  -10.7089    8.7060    4.2288   17.3990   -2.2346   30.1480
  -13.9636  -19.5434   -1.5458    3.5975   -9.7306  -11.0351   -1.8883   20.2166    3.3951   -2.6814
   -1.2061   44.3694  -30.8088   10.8983  -68.9216    8.9163    6.1800   -3.8538  -31.7314   -8.2769
   47.1532  -43.8085  -43.5218  -25.8935   25.9327  -11.8560   17.4688   -4.8162    0.6023    3.2406
   30.4453  -11.5908   25.5558   23.2746  -31.3291  -24.0837    9.2170   19.9418   -2.4379   -0.0705
    5.1154   -2.7992   12.4639    4.1753 -102.0594 -186.6521 -201.3541 -171.3205  304.0236  577.8246
  -24.7177   34.7387   16.7881   17.9371  -17.5890   -9.1588  -40.7167   10.5862  -41.6824  -22.1106
    4.3864    6.6671   16.7106  -14.9625   12.1714   12.8018    3.7967    0.9866   -3.9211    0.9612
    0.1509   41.1387  -52.9145    1.5889  -53.4132    5.4951   29.4137   15.4213  -21.3924  -34.0082
   15.8633  -50.5638   -8.0895  -25.8840  -44.7625  -17.7943   43.5292   43.6171    0.1018   20.7643
    0.6337   -2.0691   36.5582    8.9638  -28.6965  -29.9167    1.3740   23.3758    6.7106    3.9566
    1.4718  -10.6785   16.5952   16.0578 -144.7376 -152.7191  -57.0909 -815.5470   49.0148  148.8868
 1577.1717
   12.9671   20.5116  -34.1320    7.4515  -14.9199    2.8804    3.1007   24.1584  -30.3617    0.4192
   -9.1855   -2.3749   20.6664  -17.6108   22.7732  -43.9538    5.2442   40.5612    3.3029    2.5683
    5.0101   69.1030  -50.0926  -18.5426  -67.9044   22.4252   32.1165   23.3663  -37.1725  -31.3560
   92.2714 -113.9119  -52.0551  -47.2285  -23.6084   12.0482   -3.4713    4.2979   15.7023    9.0969
   23.0221   -1.7846   43.6816   20.3185  -45.0665  -72.9528   19.1179   34.7788   -6.7418   23.7960
   -9.4235  -50.1991   47.7386   37.8355 -136.8410   79.9256   22.7055 -145.6628 -173.0599    9.8521
  -60.9223 1344.9448
   17.1736   14.7275  -22.1034  -12.6924    4.2770   16.4016   35.1725  -14.1379  -37.0660   28.4009
  -15.3443  -23.7938    4.3516    6.6812    3.5067  -45.5830   15.6173   39.0946    5.7717    8.1313
   -8.2910   51.3585    1.6328  -30.4872   -1.1425    1.2906  -12.0219  -25.8207  -21.9985    5.8862
   59.0480  -29.3921  -41.6867   15.3098  -23.6498   -0.5751  -67.3399   -8.5552   44.1247   -5.4007
    3.1753   -1.1936    6.0441   -0.8063    3.5321  -46.1936   25.0753   20.4334  -11.8597   17.0160
   -9.9384  -10.2982   17.8522   16.9269  -14.0991   64.0800   55.0697   51.5297  -10.7425 -186.9583
 -243.5390  390.4869  674.3503
  -92.9126   -2.6686   21.9424   -7.5625    9.2720  -14.5479    3.9240   -8.1600   39.8420    7.9596
   -7.1480   -1.6563  -10.5858   -0.0048  -19.2746  -28.3234   -2.2247   16.6282    8.7126   10.4608
  -13.1523  -15.0728   18.8391   44.0685   -6.1436  -17.2189  -13.9948    9.3663    4.3869  -24.5690
   17.0159  -37.2502  -15.0383    9.4178    1.5110   26.5380  -13.7938   14.4744  -31.0721   -9.1864
  -12.1739   -3.7936    4.2360   -2.2966   -9.3446  -11.3523    5.2813    6.4034    0.3399   13.8783
  -19.4115   -9.2501    4.0845   -4.5078  -28.4506   14.4438   -4.8967 -116.2821   70.8478   38.2304
 -417.8594  342.1597  183.6214 1073.3447
   23.1948  -46.8199   16.4165   -5.8145   -5.8776   71.0300   20.0300    2.9513  -60.9869   23.4622
  -59.2213  -59.3501  -13.8002   18.9520   -5.8271  -24.6536    5.2628   11.7816    5.6243   14.3651
    3.8124   13.9261    8.7644   -0.3781   40.5665  -52.4144   -6.7415  -54.2870  -16.7044   32.8987
   51.3869   10.4588  -46.9730   16.9882   41.2182   18.4607  -12.6076  -16.4271    8.9594  -20.3498
   -5.8013   -0.5306  -24.6761    0.7935    6.7328   22.5205    2.9759   -1.4273   -4.5381  -29.1368
   23.5468    4.8767  -19.7989    3.2162  -22.5858 -182.0206  -48.1706  187.7341   88.1476   -7.9507
  270.9231 -593.7706 -200.2826  -11.9399 1498.2876
   30.4189  -21.5424  -44.0431   10.6438    0.2409   28.3855  -27.2111   15.3846  -39.3073   21.8195
  -10.4936  -12.6045   11.0085  -12.5762   13.4036  -13.9878   -6.0299   -3.2610    0.6664    6.2617
    3.4447  -15.9586    2.0117    7.8750   -6.8899   -9.1682    6.6686  -26.4079  -20.8299   -1.8266
   29.4790  -11.8252  -41.3371  -31.9359   14.7388   26.6213   45.0497   11.1552   -8.0471    6.4994
   19.3753    4.2570    7.6073    9.3585  -21.6621   18.4925  -21.4235  -12.2103  -18.0410  -14.3877
   17.3899  -20.1758   12.1914   17.1079  -37.1891  -67.2423  -18.3914   55.9762   -8.1887   38.8998
  208.1418 -194.6017 -299.8984 -142.5865  443.9892  606.9714
  -33.7752   34.9820   -9.4106    6.6414    4.8829  -57.5105  -20.2735  -25.9472   -5.1225  -32.5683
    7.7415   14.5729   14.2321    1.6941   14.1173  -10.4375   14.7498   17.2155   14.8135   39.2023
   16.1399   33.7865  -50.3411  -25.3820  -32.7953   29.6444   29.1728    0.7984  -25.0697   20.1945
   40.6266  -20.0777  -36.1012  -37.6977   16.8682   -7.8186  -15.0837   31.1913   31.7869    4.9564
   -1.8598    7.9786   17.1902   -2.0542  -10.9621  -40.7336   11.1002    5.4382   -0.8251    2.2179
   20.5705  -12.7427    2.2859   -8.5067 -140.5325  181.5926  108.1478  -66.4030  -34.7327    2.7501
  148.5867   63.0096   23.8527 -335.3421 -255.5783    4.7873 1556.0112
  -27.2343  -19.5072  -20.5670   20.9503    5.2343  -46.8090    5.4898  -24.7655   24.5649  -22.9998
   -4.5895   52.8050    9.7400   -6.3838   20.8698   12.7070    0.6849  -14.5330    9.3317   20.1136
   -4.2456    5.0620    6.2316   21.9112    9.6865   -9.7088   -2.1841   19.6321  -11.1107    7.0946
  -44.2690   27.7044   56.2005   32.6622  -33.2972   -4.8585   32.1758   22.6013  -29.2608    6.7246
   -3.8253    1.9417    5.5213    6.2895   -6.7020   18.2559   -9.9402  -13.2202   12.4207    1.5420
   -0.2336    7.9878   -3.5644   -5.3511  107.8779   68.8207    5.5294  -43.1966  -86.7568  -13.7082
   53.5990 -239.8995 -159.1599 -305.9057 -633.4515 -118.9309  107.0939 1276.3729
  -19.0203  -27.5231    3.9117   25.1045   17.3722  -11.6705    7.2671  -11.8167   43.7339    9.9633
  -11.3371    4.6744  -18.5771    7.2397   -3.2234   23.0532  -14.8752  -26.2449  -12.2094  -26.4896
   -0.1340  -27.1133   36.1354   -6.2584   61.5053   -2.5571  -51.2910    6.1146   20.8216  -18.5186
  -80.5360   46.6683   58.2250   25.9609   13.2547    2.9646   -9.3461   20.4391  -20.2620   -5.5691
   -8.5425    9.6885  -28.2229  -13.9009   46.9765   44.8114   -4.0369  -14.2048   13.0664  -18.8849
   12.5721   32.2589  -34.6221  -22.3451  114.2510   -0.2228  -20.1488   16.7965  -34.2107  -51.9212
   -9.2678 -113.2997  -33.7332  -81.1236 -180.6470 -218.2749 -216.0834  312.4169  642.2915
   -5.3376  -14.7649  -10.8275   10.2573  -15.0153   60.1581  -35.6267   54.6834  -26.6933  -19.5322
  -17.4334   15.3597    5.7712   -5.9016   12.8434    8.7005   -2.1251  -11.5992  -12.0954   -8.7959
   -4.3429  -50.9552   16.8568   35.1389  -40.3040   -1.6681   -7.6666   -8.0875    0.7041  -32.0355
    6.2329   -9.4033   19.6818  -39.4247   -3.7855   43.5530   27.6775  -49.9558  -29.5761   -2.2257
   21.1975   -7.0895   13.2733    8.9644  -10.3189   12.6956  -21.3635   -7.2291    9.5426   12.8354
  -15.1250  -14.0333   14.1947   13.7142 -405.7997  233.6323  190.0655  104.2207   75.4911   20.7377
  -65.6769  -44.6655   -8.8799  -99.9390 -143.9402  -53.3048 -842.5334   25.5769  151.8621 1551.5816
    1.0824  -42.6664   27.6949   15.5240   21.4316  -44.5838    4.8817  -27.3162   66.2552    4.5973
  -38.2072  -15.0804  -11.5889   12.9461    0.1262    4.7196    3.7869  -12.1563   -6.1253   -7.4558
   -0.6623    5.2533   20.8250  -46.5304   68.0900  -23.2989    2.0580    4.6002    1.1689    5.2503
  -48.7073   25.6710   19.6519   47.9119   18.5317   -2.5532  -21.8539  -29.5744   43.6567    9.3843
  -10.1138    7.2289  -16.6974  -11.0769   13.8212   25.4414   -2.8638  -12.3371    0.6047  -17.7816
    9.3379   29.9701  -29.0101  -19.1728  411.1647 -661.3473 -249.9502   33.9950 -168.5011  -28.6063
  -48.3190 -112.4310  -23.2957  -92.0466    7.2200  -38.6736 -111.6653 -135.5041   29.6423  -98.8927
 1317.7679
   10.1222    0.2626   -3.1579   -3.7885   17.4969  -18.7501   36.0474  -43.1209   29.5260   17.4588
   12.4711  -20.9732   -8.7778    4.7009  -15.3226    0.1609   -3.5127    9.2191    0.0607  -20.1333
   -2.3521   -3.6534   39.6371  -64.7467   96.1762  -21.6367  -24.5196    0.1409   33.5333   10.5116
  -68.2044   46.4309   29.5843   90.0745  -19.3866  -40.8133  -62.6457   12.2699   37.0894  -17.3029
  -37.0338    8.4373  -47.0789  -14.6766   39.5184    3.8428   16.8128  -12.8395   -8.4149  -19.1187
   13.3615   21.0033  -33.0355   -9.9404  232.3662 -187.7721 -350.4186   -3.4658 -122.4330   -9.9140
  -14.0904  -27.6835  -23.6232   25.0720   33.0818   31.3204   76.5793   -3.3938 -171.0523 -306.3297
  363.3003  671.6105
   17.1595   -4.9500    6.7260    3.3474    7.5019  -31.5809   -0.3821   -3.7235   23.0191   10.3909
  -21.6753    6.8579   -2.7072    5.8378   -2.5847    2.6537    0.9897   -3.7509    9.4996   22.9522
   -6.7078   20.6122   -7.2860    6.5316  -41.1121   28.3901   10.5655   13.6207  -14.3149  -11.4533
    8.2607  -16.6320    7.2232    0.9824   21.9095    8.3842    8.1678   -9.5148  -10.8721    6.2297
   -6.1980    1.3872   12.9597    1.8373  -12.7419    5.9423   -6.9102   -6.6217    5.1229   -1.8214
    3.1309    0.7580   -5.8494   -3.2839 -442.4415   -7.6801   58.2644  -43.1722  -38.3251  -11.9350
   45.4312    9.8458   -9.9376   21.7834  -23.7182   -6.2974   23.2716   10.0059    3.5070   -6.7422
   23.1682   29.5657  535.5506
    2.3179    3.3437  -10.4743   -3.3798   -5.0411    7.2085   -2.5203   -2.9336  -16.6513   -5.8980
  -11.1585    4.3929    3.9653   -9.2450    6.6610  -11.7112   -3.5489    6.2909   -0.7941    1.1002
   -1.9221   14.6217    2.0897   -0.0304  -14.5590    7.5208   11.4548   -1.9732  -18.3905   10.5335
   27.5419  -20.8964  -21.7478  -11.0472   -1.6000    6.8141    6.2325   17.7329  -10.9397    8.3905
   -3.9197   -0.2937   15.3965    3.9019   -5.3080   -4.4038   -3.6527    6.4966   -5.3447   -1.7666
    2.7671   -3.1569    9.3719    4.2610  -37.8817  -48.9906   22.3457  -38.8919   -9.0386    1.4294
    3.7425   -0.2952    3.8287    2.7387    7.0303    7.7596  -15.8084   -2.4686  -10.9525   43.1050
    5.4817  -24.7271   32.6105  202.9033
   -4.0105    2.6010   -1.5651    5.9665    1.0348    5.6646   -2.5260   -2.8807   -1.2735   10.4386
    5.3000  -17.2754   13.3002   -4.8768    5.3230    0.4837    2.7499   13.0630    2.8021   -6.2688
   -1.1630   -3.7609  -11.3771  -20.7938    3.1682   -2.0019   -0.4544   -3.2074   -6.8981   -0.2145
  -11.1793   12.7381    0.4015    5.7444   -3.8486   -2.9983   -9.6078   -8.0580   14.9107  -12.3549
   10.1598   -1.2619   -3.7605    5.6063    2.6652    0.9864   10.8766    4.2772    1.2316   -3.4426
    0.2263   -4.3746   -5.4732    1.9521   61.9492  -11.0435  -76.0886  -23.5895    8.1669   29.1519
   18.4944   12.2122    8.2706   -7.6468    9.2949   -0.9957    7.4555   -7.0249   -0.2028    6.7236
   -4.2376   13.0354  -62.4710   -3.1768  210.1719
   13.7073   -8.9137  -12.4158   -5.4380   -4.7837    0.8753   -5.4930   -8.6846   -0.7569    6.0519
   -7.5230  -11.8503    5.3476   -2.0402   -1.2895   -7.9622    2.2627   11.2917    3.4581    3.7093
  -10.8731   33.3933  -10.2138   -9.8314  -21.0230   -3.4235    7.7896   -6.1819  -21.6648   10.7464
   37.5499  -14.3314  -30.3709  -10.0819   -4.7864   10.9630    5.4209    2.0874    4.0943   -0.8859
    7.2947   -6.1094   16.8787    6.5227  -14.8098   -0.7853   -4.0165    0.1153    1.3618    0.0424
    3.1941   -3.1594    3.5481    4.7437    8.4457  -14.8541  -10.7623 -150.2117  144.7677   87.9346
  -36.3019   38.4194   38.3251   18.4175   -5.4800   -3.8923   -6.7589  -31.7552  -17.4208    0.8472
   -4.2516  -10.6978    0.8691   -3.1236   -7.4906  279.0790
  -16.1853   10.4567   16.2908    9.0362    5.1069   -5.9781   -5.1419   11.0504   16.8499  -17.5742
   -5.9074    5.8312   -6.1650   -4.6068   -1.4535    4.3828   -7.5034   -6.3225   -9.8125  -17.1377
    5.5081  -37.6145    3.5636   -6.3876   33.6330    3.9159   -6.6402   -6.8422    4.3429   -0.1306
  -35.1204   23.5007   17.2082   21.5449   -2.9881   -7.3832  -13.9317    7.4952   -4.8635   -4.4216
   -4.1755    5.6725  -18.0470  -11.6933   29.1091    6.2359    2.9884    4.3254   -1.5812  -10.9987
    5.8213    7.8229  -10.0562   -4.3198   14.7344  -48.3433  -26.3138  167.0829 -281.6703 -118.8221
    0.3913   -1.2750   -9.6818  -22.7958   32.9288   19.9307   -0.7095   24.4413   10.3503  -18.6012
   53.2716   28.3935   -6.1473    0.5950    7.2211 -138.2832  417.3373
   -6.2882    1.5454    2.2233    5.1106    3.3127   -4.1673   -8.7236    3.5359   25.1936    6.5581
   -7.7991   -8.5717   -3.7551   13.2462    1.6821   10.1828    3.2575   -4.4456   -4.1139   -7.1053
   -6.8983  -30.4716   22.3378   -3.7714   26.0995   -4.9741   -8.6749   -1.7448   15.1759  -10.2150
  -39.1255   25.9092   16.8125   14.9442   -6.1423    0.9415   -6.5003   16.4622   -8.5404   -3.1965
  -10.3573    2.1606  -16.4845   -3.7491   11.2598    9.3129    5.0979   -4.7407    1.5868    0.7506
   -4.7796    5.1282   -6.1231   -9.1251    0.2173  -28.4901    6.4839  103.5307 -102.2218 -119.6338
   10.2389  -14.4412    0.7010    6.9782   19.0568   14.3326    2.8196   18.9916    8.6740  -13.3009
   -6.1070    6.1836   -2.4860    6.6620   -4.5751  -73.0632  123.0773  271.1234
   -1.6607   -5.1512    0.1235    2.7370    4.2341  -20.1749  -13.3958    4.1722   45.6937    4.4117
  -15.1429  -10.3060  -10.7426    8.4174  -16.1674    3.0634   -0.0849   -2.0318   -3.8371   -4.8363
  -10.8515  -16.0098    5.9606    5.7241   19.0380  -14.6070  -12.3980  -17.0962   -0.4354   10.8852
    9.0228   12.1018  -15.3202    2.8156    1.8165   17.2362  -11.7493    5.3026   -1.3853   -4.3487
    8.6568   -2.7183   -6.2751   -9.1246   12.7155   14.8432   -7.6014   -1.0797    5.2368   -2.6654
    1.0320   14.3900   -9.7815  -10.5859    7.9264   -2.3173   -0.0927  -19.8871   -8.3674   23.9228
 -161.5714 -160.7089  -36.2249   43.7805   44.7156   14.0544  -31.8055    7.4594  -11.4121    7.5168
   17.1109   -3.6674   11.6676    5.8079   -8.4943   -4.8746    0.3908    2.9833  280.6040
    3.8643   -0.6525   14.3675    9.2078    7.9534  -35.0741    1.0666    7.2194   67.4753   10.5593
   -4.3948   19.1773  -22.8973   16.5525  -16.6495   12.7391   -4.1097  -15.9813   -8.7342   -9.4832
    8.2988  -45.4267   20.3207   27.1966   24.2003  -15.9584  -24.6061   -2.2785   29.4250   -2.9928
  -15.0547   23.8650    4.0051   -0.8353    7.2561   11.9998  -17.4508   -0.1525   -2.0120   -8.1509
    5.7638    0.4423  -25.5652  -12.2283   18.9999   12.0946    0.4475   -3.5114    9.4704    8.2472
   -6.1727    9.9450  -13.1269  -22.4221   -1.9699   -6.3232   -1.7434   -1.6682   34.7771   29.0913
 -187.0205 -276.8903  -50.7997   32.7953  -73.6490  -48.1312  -17.4187   17.9185  -13.2456   28.6855
   23.0113   -2.2133   15.3274   24.1281   -6.6374   10.4175   12.1015   -1.3875  151.5015  429.1077
    2.7816   -2.7870    0.1724    6.6010    9.2050  -18.1529   -5.3546   -0.1939   38.8288    2.7308
   -3.2757  -13.8177  -16.4096    5.6053  -17.1324   -0.8060   -3.8813  -14.2924   -7.1114   -6.6871
   -5.1839  -10.9050    1.7057    2.8479   10.9120    0.2374   -7.3609   -2.2275    1.6776   -3.5056
   -9.2296    8.1259   -0.9839  -10.5943    1.9168    7.7283   -2.2386    3.3978   -6.4717    1.2454
    5.4407   -2.1584   -6.3289   -6.5922    8.2966    5.5116   -5.1055   -3.0324   -0.8446    0.6114
   -3.9898   11.9053   -4.3475   -4.2227    8.3528   -7.2788   -7.3614    7.6871   14.3959   25.8794
  -29.8009  -77.9416  -76.4239    2.1060  -15.1053   11.0212   -8.1215    0.7750   -5.6578   13.3478
   -2.8532  -11.9473   -1.3101    4.5390    8.3101    7.2220    8.9047    0.7426   47.4949   68.8501
  198.2307
    0.9515  -20.9403    1.8359   11.3782    6.1421  -19.9463    4.7463   -1.7263   25.6164    3.7962
   -5.1614   -3.1639   -4.0607    6.4292   -3.7885    5.5696    2.1524   -6.0330    1.4379    2.0331
   -3.9106   -4.5271   16.3507   15.8860   32.6444  -29.1374  -20.6194  -14.7487   20.0528   -5.1667
   -3.0913   -7.3766    8.1895   23.1555    0.7332    3.6369  -15.4004    3.1066   11.1302   -1.6550
   -5.2862    2.3739  -12.9286   -7.6254    3.4317    3.4247   -7.0231   -4.5532    9.2029    3.0805
    2.2598    7.4391   -8.1960   -9.5415   26.8868  -36.1652  -34.3193   -0.5966  -14.7993   -1.2586
   -2.2392  -16.8145   -8.7288   40.7855  -14.5541  -22.0772 -179.6540  155.8585   88.7951  -57.3484
   21.3364   35.8773   20.4645   -1.1536   -9.1503    7.6632   -7.4810   -4.8558    4.8772  -23.1619
   -6.3147  299.0216
    0.3976   27.4832    2.3555  -13.6156   -5.3884   22.7153    2.4233    5.5836  -30.9689   -7.7025
   16.8728   12.2302   -4.0178    5.4785    8.5160   -3.3778    2.2417   -8.9594   -5.8243    8.8406
   11.7051   -7.8491  -10.1278  -20.3069  -29.8158   23.9020   18.9506   24.0251    2.8909   -7.9810
  -13.8599   -4.2723    9.4140  -22.6881    8.9484   -2.5799    0.4796  -15.7801    2.7350   -0.8712
   -3.2991   -4.0532    5.6887    0.3244   -2.4816  -11.2592    4.3135    6.7476   -2.1459    4.2947
    5.3074   -9.4696    7.4055    5.2018  -28.2723   39.7351   27.2140   -0.4732    6.9019   -9.1222
  -12.8281   44.7846   19.4631   -7.2234  -99.7700  -43.1276  163.5931 -242.5967  -89.3894    8.5506
   12.9915   -4.3459  -13.6840   13.4770   12.4876   -0.4087   14.2724    1.9605    3.1569   16.0790
   -2.4258 -148.3639  376.1243
   -3.2284   27.4328   -2.1361   -9.3737   -1.4012   21.3377   -3.9418  -21.4215  -40.0224    0.7299
   21.5123   20.1670    7.2288  -14.0146   17.4160  -14.3709   -4.9427   17.8857   -3.1533   -3.8981
    7.8756   -1.7114   -9.2743    9.5622  -25.2857   17.5604    4.1877   21.2782  -14.6303  -14.4130
   11.6515   -9.9748  -13.8852  -33.3274   10.9122    6.8480    2.1975   -8.5454   -0.3961   10.8950
   14.0684    7.4205    9.5624    7.0691   -9.1231  -30.8021   14.1520    8.1979   -8.5774    9.5396
   -1.7311  -19.5876   16.3300    7.9737   -1.3997   24.4474   35.0759   -3.1268    4.7658  -17.8555
  -15.4863   -5.9131    8.6824  -12.6201  -43.9321   -5.6086  115.2294  -95.7045 -124.4710   10.5888
    1.2476    9.2106   -6.6184    6.4601    6.9464    2.7163    0.6138    5.2104    6.6298   17.8834
   -5.1329  -88.5347  115.9221  266.7801
   17.2483    9.3990   -7.2932   -6.2961   -1.4474    5.7641    3.6265    0.4619  -10.5422   -6.5164
   27.0662    0.5420    7.4578   -3.8816    6.7549    2.4919    3.4140   -5.0175   -1.4608    6.4510
    2.5206   -3.0433    4.4186    0.9086  -13.4702    0.3394    0.2401   -1.2746   12.2746   -4.8145
   14.6761  -21.0593   -3.9774  -22.2488    4.8958   10.5477  -14.0800    0.0194    9.7011   -6.9306
   -2.0081   -2.4118   -2.0751   -0.2964   -3.9661   -3.3705   -4.8544    1.4216    5.7787    3.4806
    9.3559   -4.1114    2.0648    5.2600   25.9879   31.9574    2.2858  -20.7269   10.4121   -4.2222
   10.5215   19.4957    0.8463   -0.0555  -10.3852   -1.0795  -42.0059  -40.4114    9.2106 -123.1636
 -150.2074  -41.5486   -6.9967   10.4688   -1.9579   12.0227   -7.0091   -2.4743    5.9652   -5.6398
   -1.1773   -9.3404   -5.3395    0.4562  266.2164
   23.7993   19.2535  -16.0623  -10.0613   -3.9615   15.3371   12.2240   -8.6303  -31.7183  -12.7261
   33.4129   -2.0941   17.8616  -14.3205   21.6106   -9.1596    2.1526   -0.4627   -5.2477    3.4431
   -0.2282    3.9343    1.1130    4.1388  -22.6142   10.3277    7.6767    0.1013  -12.1274   18.4883
    8.6945   -3.5917   -6.8804  -16.7746   -8.5057   -7.6085    3.0938   22.9935  -10.2325    9.2905
    1.5112   -3.2877   14.3271    4.0995  -11.9588    1.0902   -6.6753    5.4888   -4.6966    3.2652
    8.1841   -5.5015   13.0931    2.8902   22.4591  -26.3325  -28.5186  -11.3031   34.9545   -3.4062
   28.9686   34.8186   10.9462  -17.2140   -0.2609   14.7222  -37.3751   -6.1338   16.7378 -140.1691
 -314.7003  -80.4133   -4.5068    9.3353    7.5074   -2.4960   18.3036   14.4863    5.8883   11.7834
    5.2193   -0.4861   14.0217    7.7248  147.5921  473.1621
    9.6132   10.2387  -10.2973   -8.9060   -4.5999   13.6764   -2.0707   -5.9178  -44.1399    6.0652
   10.5141   -2.7958   17.5813  -22.0001    6.3363  -12.8758   -2.7556   13.3990    6.3406    5.7009
    3.1431    6.7010   -0.1818  -12.9636  -30.8327   10.9468   10.6630   -0.5546   -5.4686   -0.2778
   44.8588  -31.3789  -26.7795  -37.9649    3.5815   22.2929   -7.8513   -1.7224    5.6120  -13.7719
    5.3073   -1.7262    5.8004    9.5650   -2.8621   -1.1655    2.3846    7.2945   -2.5689   -4.2640
    4.7973  -15.1488    7.8386   19.0819   -6.3550   -4.4568   19.2197   -4.2216   -1.6782   -4.1733
    9.1462   26.5464    3.7924  -16.6674  -11.3575    5.9063   -6.5093    7.1877   11.6842   -3.1244
  -84.8959  -85.6095   -3.1357    8.0711   -3.3623    0.0371    6.0850    6.3370    1.9521    0.1467
   -1.1864   -3.8205   11.0155    0.7019   39.4606   89.3971  210.3917
  -15.7547   -8.1779  -14.7234   10.8358  -15.2082   -4.8593   -7.9414   14.8791    0.2218  -12.2968
    0.4746    0.8443   16.1576  -11.6956   14.9178    3.3075    1.1306   -5.1027    5.5873   -0.4632
    8.5062  -10.5207   15.4433    8.7382   21.2171    7.6660  -17.2022    8.4476  -40.5771    2.6001
   30.0206    0.0709  -48.4482  -19.5507   -7.7941   45.8009  -20.4981   44.1331   16.6420   -6.1884
   -2.8544    8.9907    1.7738   -4.3856   19.7944   -1.6231   10.9625   21.2394   -5.7769   -7.6348
    8.2914   13.5753   -8.4059   -0.3643   13.5667  -40.6715  -24.6461  -18.2472  -35.5628   -6.3655
  -17.8410  -13.0339   16.1572  -14.5514    2.4714   -1.7830   -3.9382   -5.7327   -0.7650  -10.4921
    1.6686    6.3695   -5.9632    2.5742    7.8070   -2.6712   11.2137   13.4097   17.9450   21.1318
   11.8537    4.1872  -14.4395   -0.5356    4.9141   16.8492    4.6748  852.3747
    1.1763  -11.1174    6.6503  -16.5599  -28.2444   18.6032    9.3517   10.0621  -12.8189   -3.4818
   -9.2051  -22.9225    2.8407   -5.3045   11.0106   10.1955   -2.4138    4.1335    3.5613    4.3850
   24.5940    5.5110   -3.7409   19.7739  -10.8396  -43.5626  -15.2682    6.6024    2.9227  -13.5439
    3.5559  -17.0559   26.5860   -3.6326   10.3800  -34.4070    6.8240  -21.9278    7.4514    1.5902
    4.6782    3.0698   12.1154   12.2266   -5.1187  -12.8999   18.9600   20.0033    1.1374   -4.5396
   14.2955  -12.5075   11.2654    9.7700    9.0800   -5.9822    1.3697   23.5181  -15.0594   -5.2483
  -38.2004    0.1087    8.5329    5.9827  -24.0457   -0.9007  -25.6771   -5.6797   -4.1869   20.3643
   -1.5039   -2.9539   -9.4669   -2.9239    3.0372  -10.0252    6.0530   -2.4201   -1.5990    4.3388
   11.2685    4.4474    0.9165   11.1164    4.8846    0.2121    8.5160  -82.1142 1260.9062
    7.7896    5.4126  -39.8973  -29.0287   -8.0387   19.7258   28.8447   -3.0505  -25.0584  -18.0822
  -30.7638    2.7217   -9.2497    8.4653   -7.1172   27.8305   -0.0525   -8.5788   10.0437   17.2473
   13.8756   30.8603  -34.4872    1.4216  -28.0729   36.4901   21.6560   -2.9994  -57.8739    2.4005
    6.5739    6.1169    3.7655  -18.4219   17.6706    2.3911   13.0106  -14.1010   15.0186    3.3823
   10.7713    9.1425   16.3770   12.1726   -3.3163  -10.5958   20.6347    9.1740    9.6577    1.6409
   -5.1721   -0.0817   -5.9722    0.0958    6.5568    4.0111   16.4168  -26.6209  -20.0643   -9.3493
   15.1808   18.9336   -9.4864   -9.2562  -26.6071  -13.4103   21.0957   28.7856   -5.8445    3.3380
   -6.2516  -11.0873    4.5749    6.0590    1.0773   -4.9687    6.1486    2.7511   -7.5055  -10.4047
    3.5135  -12.2268    9.1505   20.0628   -2.7959   -5.9364   11.6350  594.5073   29.5960 1134.7199
  -14.8079   15.7415   -9.6755    6.7972    7.1858  -17.7834  -12.1221  -14.1739   26.5913    2.3244
   -4.9248   13.3788   -1.6149   -7.2939   -4.5001   10.3832   -5.6959   -8.3795    2.4930    2.8029
    0.9148    5.9231   28.3018   38.4615   -9.4441  -33.2874   -6.2344   -0.5094   -5.0732  -14.8781
    9.6177   -0.0678    3.5655  -19.8673   -1.9691   -2.3069   22.7103  -36.5467   -8.2854    4.6106
    0.4868   -1.5493    4.8589    9.4300  -16.1289   -9.4343    4.5240   -4.0475   -2.0595    8.6014
  -10.0195  -11.8204   13.4010   13.8550  -27.0996   -5.6430   15.0786   -9.2118  -19.1150    9.0613
  -28.4196  -18.3145  -21.6459   12.8843   -7.7585    7.1455   -5.6234   -4.8430  -14.2612    5.0743
  -26.0549  -13.4824   13.3076    3.5028  -13.9078   -1.8987   -5.1978  -10.5260    8.8524   11.9869
    4.9623   -1.8992    5.5664    7.8617    4.2690    0.1624    1.9068 -402.0303  266.5995 -240.5755
  812.1641
    3.5015   -5.8483   -3.8380   11.6533   10.8501  -45.7721    1.5713  -17.0769   13.8878  -12.7486
   -1.5057   35.2026    6.2509   -3.6162   -0.9932    6.3801    4.3221   -6.4409    0.2299   -0.3607
    3.9317   10.5707  -13.2993  -29.7483   11.8927   49.8131    3.2322    7.9663  -63.1114  -12.4254
   -5.6844    8.5021  -23.7325   -9.0311   48.7837   34.2534    0.4032  -39.2112   -9.7433   -2.2087
   -8.8912    1.9208  -11.2284   -7.5444   11.6511   11.0966   14.6446   17.3584    5.6249   -3.5054
    6.5574   -3.0487    1.8580    9.1217   36.0665   -0.3710   -4.8614  -29.1111  -24.3338  -22.1607
   52.9011    6.1208   17.1425  -33.9983  -16.4247   -0.2481   54.2492    5.2244   24.3916  -68.1835
   -7.4337    7.3619   -3.8394   -6.0960    2.5860   -6.5367    3.9332    5.3396  -16.9413  -22.3774
    3.1600    1.4299    1.1401    7.9836   15.4497   19.1721    5.0172  206.7618 -303.0977  167.4460
[...]
    9.4777    7.8922   -4.5461   -0.5728    1.1899   30.6816  -35.3029  -14.4282   -3.4955    4.5832
  -14.5337   -2.5843   -1.6592    5.7629    0.4480    2.7867    4.1418    2.2627    1.0109    5.7240
    9.8423   27.1145   -5.6737   11.4347  -27.1142   -4.6122   -5.4545  -17.1740    4.8570    5.9654
   -9.1873    3.2360  -15.8685 -111.6493    2.8686 -389.6961  -22.7293   33.8113   32.3602  103.7533
  -25.7006  547.9557
   10.1006   -8.0664  -12.8530   10.6313    4.3229    4.0732   -2.7053   19.4418   10.0724   -3.5358
   10.8180  -16.9448    1.0182   -3.1969   11.0191  -15.2600    3.2209   -2.4207  -11.1609   -5.2973
    2.4192   -3.8975  -10.3195  -12.6009   -4.2914    6.1070   17.8045    7.3657  -17.1371   -6.4838
  -11.9329    6.3672   13.1590    4.3946    7.3262  -17.9695   26.2140  -18.9822  -19.8562    9.4879
  -15.8972    2.7717   18.1547    6.7601   -6.1779    4.3337    0.4540    8.9578   -2.1013   -8.9177
    7.0517   -8.2043    5.1591   13.7191   11.0775  -13.2083   14.3862   -8.6698   -4.2695   17.1499
   20.0539   11.6936    8.1013   -9.3121   -1.3453   -3.8655    5.4417    5.9359    1.6470   -3.0446
   15.3363   22.1669   13.9750    2.5922   14.1459    2.2963    3.9222   13.8519  -10.8536   -8.9189
   -3.0646   -5.6886   11.3019   -1.8076    2.7364    9.1475   -0.9104   14.6725   -2.2096    3.1537
    5.4941   20.4074    2.0872   24.3586  -16.6272   -8.6485    0.4668   -0.2829   -6.3804    0.2572
  -13.7582   -0.7519   -5.9252   -3.5457   -5.2858   -0.4361   -6.3103   -1.7058   10.2816    0.6477
   -3.8440   13.0123   -3.9019    3.2583    9.9803   -2.8033    9.1686   -1.5148  -13.2773    8.6263
    6.3230  -26.5503    0.2838   15.5962   -1.4620  -25.1577   -7.2177    9.6764  -15.3753   15.3267
   -0.2554    6.4038   10.0031  -18.4486  -16.9093  -16.8324    6.5225  -16.9206   14.8636    4.3225
   -0.0295   12.5751  -13.5079    1.7257   -3.6227  -11.2496    9.6702   -4.1064   11.7440   -8.0378
    6.3364    7.7077   -6.8477   -0.4407   -5.3302   -6.8347  -35.3591   -2.3622   41.8875   35.6747
    3.8630  -38.3507   -1.9696   -3.7259    3.6121    9.7327  -16.2650   10.8559   20.7754   25.5781
    4.3853   22.6988  -13.9638  -20.0207   -9.7684   -5.8343   11.6463   -9.8839   -8.2385    1.5153
   -1.0522    1.1976   14.9805 -305.6680  108.6921  106.2496  -12.8275   22.0858   25.0152   35.7018
  -32.8282   37.2859  462.0629
   -6.2571    1.7993    2.2244    0.2591    0.2074    2.4620    7.0403   -8.4682   -2.2548   10.2040
   -9.7856    2.5025   10.4261    6.0698    0.4429   10.7133    3.0696    9.1165   15.0256    8.1986
   -4.3925    1.0254   -3.2070   14.5746    4.6656   -9.5822   -7.5150   -7.1173   12.2650   11.6473
  -18.2690   10.8711   12.7869   -3.2518   -4.9689    5.5600   -7.4505   15.0257   -1.3711    4.2143
    9.3564    3.8182  -10.9044   -8.6243    7.6405   -2.2426   -5.4755   -1.0614   -5.4286    8.4701
   -4.5399    0.3724    1.4775   -7.3240   -1.5560    3.8380  -13.9489    0.0978   -0.0803   -7.5680
   -8.3897  -11.0256   -4.5372    2.3264   -0.9054   -1.1019   -1.7664    0.4472    6.8740    0.4423
   -1.7626   -5.0518   -1.1246    3.3431   -7.6128    5.4948   -0.4812  -10.8304   11.3811   -2.7012
    4.6390   -1.6152   -7.3279   -5.4799   -5.3699   -9.1706    4.2928   -0.5238    3.6731    2.7910
   -9.4397   -7.2015   -3.3447   -2.3340   10.4110    6.2126    7.1770    2.5200    3.9936    3.6539
    8.7642    2.6578    4.5045    1.0517   -3.3887   -1.5547   -1.2580   -3.2886  -10.4737    1.5256
   -0.5518   -8.8652    9.8404   -7.6010   -4.1707   -2.2506   -9.1361   -4.1818    4.9123   -5.0570
   -3.4109   12.6202  -17.2753  -21.7704    5.5697    2.1249    7.0988    7.3825   -6.0887    3.3566
   -3.3608   -5.5295   -4.9730   -7.7967    4.1800   13.5956   -8.9869    9.5023   -6.3613   -0.5343
   -2.0325   -5.9520    5.7076    0.0081   -3.8687    3.9783   -7.8735   -0.7747    1.4768  -11.1881
    0.3118    0.6315   -0.4674   -0.2023    3.7391    9.2893  -39.4914   18.2118  -17.3468  -11.3732
  -44.2990   17.0555    2.6073    5.6748   -5.5606  -10.4388   16.7286   -7.3124   17.5302   -2.3512
    8.2689   -3.0759    6.4875   22.3624    8.4295    1.5886  -11.6299    9.0813    3.2884   -0.3732
   -5.1730   -2.8891  -10.6453  119.9223 -103.0809  -32.8719   14.8079   20.6576  -32.5111  -11.0049
   16.9052   -9.1990 -100.7633  230.0583
  -18.6827   -7.2187   20.7464    0.5159    6.4395   -4.5302    2.4758  -22.4566    4.7168  -12.5152
   15.2497   27.6862  -15.2902    1.4325  -14.4097   14.2368   -7.0397  -10.9335   -3.7804   -9.2596
    4.6597   -8.9200    0.5262   14.9026   25.5005   -8.9870  -13.2192  -11.6684   25.7922    5.8339
   -5.9261   11.6332    6.5222    4.3536   -0.8080    6.7913    9.2699    7.0719  -11.0854   -1.6356
   14.8280   -3.2845  -23.9454  -19.3663   22.2051    8.6968  -14.1989  -13.2260    2.6768    5.8052
    2.1063   11.5701    4.7242    3.8404   -2.8543    5.7605   -3.3977   24.8460    9.1860   -0.6496
   -5.5140  -15.4899  -17.2710   13.0991    3.6596   -4.9753  -24.4741  -12.4642    0.4478    9.1509
  -11.4164  -22.2487  -12.3443   -9.4167    0.9684   -0.0806   -1.6493    2.1736   10.6661   16.3798
    4.8418    6.2879   -0.7639  -20.5853    4.2607   -6.0133   -0.2728    2.9659   -2.3271   -3.4959
   -1.3902   -4.6565   -2.8570   -8.4198    5.3532    9.7543   15.1726   -6.1784   12.2763   -7.7546
    2.7285    2.5508   -9.0633  -17.4953   -0.5181   -1.5098   12.6240    5.3797    2.6683    2.8395
    1.9437    1.9902    5.5917   -8.0933    0.8224    4.6350   -0.3497   -1.9057    5.8380    0.5124
   -2.9114   29.1214  -22.5866  -36.4191   -1.9570   20.6616   -1.9452  -26.7175   15.4826  -14.0750
   -6.6392   23.1748   15.9497   37.2739  -11.7718   23.6500   -5.5114   17.5027   -6.1243   -5.3597
    2.2917   -5.6812   -0.6707    6.8297   12.2220   20.0702  -19.0691   21.0110  -13.8834   21.0603
    0.1762    0.5030   20.3150   -8.3267    2.0777   -6.3307   16.3667  -10.3322  -10.4086  -18.0109
   57.5126   21.8721    0.9206   -6.0472    4.9021   -2.1047  -21.7378    3.3133  -32.2062  -18.5780
   -9.7973  -30.1860  -12.3138   -8.8436   17.7468   14.9793  -11.9784   -6.7565    5.5945  -18.5222
   -0.6713   -3.4120  -16.7013  147.5808  -47.6464 -159.6834   10.2357  -40.5207   10.2477   -5.4684
    2.1287  -45.6460 -181.2056   64.1870  318.1700


      MOLECULAR POINT GROUP   :   C1  


          ALPHA EIGENVALUES  
 -40.23486 -40.03257 -39.88566 -39.12764 -38.19438 -31.95001 -31.80508 -31.68808
 -31.54671 -31.38376 -29.58466 -29.47132 -29.35175 -29.22987 -28.33408 -27.49786
 -26.29227 -25.98641 -25.38450 -25.33496 -25.19546 -25.13812 -25.08227 -25.02438
 -24.90923 -24.79757 -23.32439 -21.48498 -21.38628 -21.28039 -21.06306 -20.31522
 -19.62251 -19.56693 -19.40376 -19.27281 -19.07419 -19.01320 -18.82009 -18.75371
 -18.58483 -17.99124 -17.97813 -17.86940 -17.80592 -17.78334 -17.72077 -17.61141
 -17.51901 -17.43185 -17.38276 -17.34644 -17.15683 -17.11311 -17.01589 -16.97551
 -16.91249 -16.84022 -15.65459 -15.55312 -15.46084 -15.37765 -15.32113 -15.27210
 -15.18273 -15.14624 -15.02960 -15.00518 -14.73097 -14.56290 -14.23745 -14.16651
 -13.96703 -13.92356 -13.91301 -13.86337 -13.71736 -13.37291 -13.21086 -13.12472
 -12.98209 -12.87657 -12.52893 -12.29030 -11.80117 -11.26270 -10.90496 -10.33936
  -9.75966  -3.33957  -3.33169  -3.17016  -3.13265  -3.10188  -3.00186  -2.91197
  -2.79046  -1.79562  -1.64338  -0.96586  -0.85944  -0.85102  -0.81840  -0.76716
  -0.70985  -0.70605  -0.58776  -0.45981  -0.04783   0.15999   0.23240   0.48158
   0.60122   1.08562   1.12119   1.13310   1.20858   1.23607   1.31753   1.40558
   1.41955   1.47169   1.50977   1.53830   1.69344   1.82511   1.95669   2.03781
   2.06568   2.12170   2.14258   2.19006   2.25181   2.29683   2.31747   2.43556
   2.50170   2.57110   2.57674   2.70939   2.76928   2.78451   2.81771   2.85684
   2.89639   2.91323   2.97244   3.00949   3.01346   3.03128   3.04023   3.06757
   3.13014   3.15615   3.17237   3.22166   3.33445   3.34556   3.46202   3.52474
   3.61216   3.65131   3.70998   3.73569   4.04126   4.12377   4.21819   4.77121
   4.83204   4.89613   5.34485  49.25460  49.30949  50.20082


           BETA EIGENVALUES 
 -40.16459 -39.95072 -39.80688 -39.03068 -38.65833 -31.93314 -31.78575 -31.66264
 -31.52233 -31.35725 -29.56750 -29.46299 -29.33797 -29.21728 -28.35350 -27.44929
 -26.29101 -25.98298 -25.36393 -25.30859 -25.17078 -25.10114 -25.05532 -24.99987
 -24.87613 -24.77859 -23.36863 -21.43466 -21.33898 -21.22959 -20.93701 -20.28955
 -19.57701 -19.53551 -19.35963 -19.23775 -19.05264 -18.99454 -18.79862 -18.72589
 -18.60409 -18.03455 -17.99548 -17.87240 -17.76358 -17.68551 -17.57689 -17.51367
 -17.37258 -17.35948 -17.20946 -17.13890 -17.11469 -17.04640 -16.97953 -16.91945
 -16.83134 -16.72013 -15.64114 -15.53249 -15.44518 -15.32606 -15.25761 -15.19339
 -14.89461 -14.85622 -14.73557 -14.61295 -14.52146 -14.05816 -13.99523 -13.94403
 -13.89486 -13.89245 -13.86886 -13.74697 -13.58093 -13.20785 -13.11965 -12.97087
 -12.86611 -12.36983 -11.17395 -11.07040 -10.44860 -10.18004  -3.38918  -3.28923
  -3.17561  -3.14320  -3.10032  -2.99884  -2.91118  -2.79068  -1.83831  -1.56418
  -1.35386  -1.21285  -1.10586  -0.94202  -0.85952  -0.81570  -0.75742  -0.71298
  -0.68512  -0.66034  -0.50321  -0.37176   0.26072   0.29205   0.35477   0.75934
   0.84502   1.04873   1.14030   1.16489   1.28277   1.32935   1.35648   1.45733
   1.47701   1.51363   1.54727   1.66835   1.70127   1.83194   1.96174   2.05147
   2.11398   2.12971   2.18778   2.20099   2.25984   2.32901   2.35680   2.48214
   2.53988   2.58771   2.61419   2.74301   2.79655   2.80958   2.81989   2.82664
   2.89955   2.92252   2.97174   2.99144   3.02908   3.04323   3.05660   3.08111
   3.15321   3.16540   3.19679   3.23473   3.35244   3.37119   3.47500   3.48935
   3.61283   3.65300   3.71112   3.73602   4.12369   4.21813   4.23225   4.77128
   4.89612   5.00485   5.34636  50.52723  50.61640  50.85073


              NET ATOMIC CHARGES AND DIPOLE CONTRIBUTIONS

  ATOM NO.   TYPE          CHARGE      No. of ELECS.   s-Pop       p-Pop       d-Pop       
    1         Co           1.693970        7.3060     0.62721     0.21101     6.46780
    2          C          -0.155504        4.1555     1.36668     2.78882
    3          N          -0.461152        5.4612     1.63773     3.82342
    4          C          -0.181976        4.1820     1.05272     3.12926
    5          H           0.156577        0.8434     0.84342
    6          H           0.154758        0.8452     0.84524
    7          H           0.131181        0.8688     0.86882
    8          C          -0.030354        4.0304     1.09503     2.93532
    9          C          -0.225189        4.2252     1.08944     3.13575
   10          C           0.103254        3.8967     1.11043     2.78631
   11          N          -0.485041        5.4850     1.70072     3.78433
   12          C           0.055113        3.9449     1.10063     2.84426
   13          C          -0.224351        4.2244     1.08753     3.13682
   14          H           0.172229        0.8278     0.82777
   15          H           0.184647        0.8154     0.81535
   16          H           0.202217        0.7978     0.79778
   17          H           0.171726        0.8283     0.82827
   18          H           0.180561        0.8194     0.81944
   19          C          -0.035213        4.0352     1.09380     2.94141
   20          C          -0.218353        4.2184     1.08896     3.12939
   21          C           0.122922        3.8771     1.10654     2.77054
   22          N          -0.470319        5.4703     1.69806     3.77226
   23          C           0.055501        3.9445     1.09796     2.84654
   24          C          -0.225694        4.2257     1.08630     3.13939
   25          H           0.170561        0.8294     0.82944
   26          H           0.182642        0.8174     0.81736
   27          H           0.187081        0.8129     0.81292
   28          H           0.164459        0.8355     0.83554
   29          H           0.177879        0.8221     0.82212
   30          C          -0.032861        4.0329     1.09472     2.93814
   31          C          -0.225741        4.2257     1.08815     3.13759
   32          C           0.108306        3.8917     1.10557     2.78613
   33          N          -0.477191        5.4772     1.69393     3.78326
   34          C           0.074521        3.9255     1.10292     2.82256
   35          C          -0.222956        4.2230     1.08711     3.13585
   36          H           0.170325        0.8297     0.82967
   37          H           0.181585        0.8184     0.81841
   38          H           0.186020        0.8140     0.81398
   39          H           0.179138        0.8209     0.82086
   40          H           0.180517        0.8195     0.81948
   41          C          -0.033916        4.0339     1.09499     2.93893
   42          C          -0.219659        4.2197     1.08870     3.13096
   43          C           0.065093        3.9349     1.10552     2.82939
   44          N          -0.470020        5.4700     1.69859     3.77143
   45          C           0.072092        3.9279     1.10467     2.82324
   46          C          -0.215606        4.2156     1.08894     3.12667
   47          H           0.172733        0.8273     0.82727
   48          H           0.182964        0.8170     0.81704
   49          H           0.184146        0.8159     0.81585
   50          H           0.185511        0.8145     0.81449
   51          H           0.182446        0.8176     0.81755
   52          S          -1.013891        7.0139     1.91121     5.03463     0.06805
   53          C           0.271329        3.7287     1.07281     2.65586
   54          C          -0.459154        4.4592     1.05832     3.40083
   55          H           0.152426        0.8476     0.84757
   56          H           0.162413        0.8376     0.83759
   57          H           0.159362        0.8406     0.84064
   58          C          -0.476372        4.4764     1.06054     3.41583
   59          H           0.156154        0.8438     0.84385
   60          H           0.128116        0.8719     0.87188
   61          H           0.162721        0.8373     0.83728
   62          C          -0.479002        4.4790     1.05990     3.41910
   63          H           0.157532        0.8425     0.84247
   64          H           0.162140        0.8379     0.83786
   65          H           0.134647        0.8654     0.86535
 DIPOLE           X         Y         Z       TOTAL
 POINT-CHG.    -1.529     1.399     3.519     4.084
 HYBRID        -0.289     0.467    -0.431     0.698
 SUM           -1.818     1.866     3.088     4.040


          ATOMIC ORBITAL ELECTRON POPULATIONS

     Atom    s        px        py        pz      x^2-y^2     xz        z^2       yz        xy
    1 Co   0.62721   0.06135   0.06255   0.08711   1.12682   1.67392   1.16628   1.47949   1.02129
    2  C   1.36668   0.86744   0.91618   1.00520
    3  N   1.63773   1.36596   1.37469   1.08276
    4  C   1.05272   1.15709   1.07270   0.89947
    5  H   0.84342
    6  H   0.84524
    7  H   0.86882
    8  C   1.09503   0.93378   1.07210   0.92943
    9  C   1.08944   1.05588   1.00746   1.07240
   10  C   1.11043   0.94764   0.97047   0.86821
   11  N   1.70072   1.17335   1.40562   1.20536
   12  C   1.10063   0.91950   0.95940   0.96535
   13  C   1.08753   1.07562   1.01428   1.04693
   14  H   0.82777
   15  H   0.81535
   16  H   0.79778
   17  H   0.82827
   18  H   0.81944
   19  C   1.09380   1.07202   0.94764   0.92175
   20  C   1.08896   1.01258   1.05610   1.06071
   21  C   1.10654   0.95400   0.95857   0.85797
   22  N   1.69806   1.40314   1.15404   1.21508
   23  C   1.09796   0.97269   0.91928   0.95457
   24  C   1.08630   1.00803   1.08105   1.05032
   25  H   0.82944
   26  H   0.81736
   27  H   0.81292
   28  H   0.83554
   29  H   0.82212
   30  C   1.09472   0.91328   1.08391   0.94095
   31  C   1.08815   1.05667   1.00578   1.07513
   32  C   1.10557   0.91255   0.97296   0.90061
   33  N   1.69393   1.20586   1.41516   1.16225
   34  C   1.10292   0.90959   0.96376   0.94921
   35  C   1.08711   1.06436   1.01025   1.06124
   36  H   0.82967
   37  H   0.81841
   38  H   0.81398
   39  H   0.82086
   40  H   0.81948
   41  C   1.09499   1.08601   0.92234   0.93058
   42  C   1.08870   1.00014   1.06073   1.07010
   43  C   1.10552   0.98909   0.93113   0.90916
   44  N   1.69859   1.41617   1.18109   1.17417
   45  C   1.10467   0.95582   0.92290   0.94452
   46  C   1.08894   1.01480   1.05929   1.05257
   47  H   0.82727
   48  H   0.81704
   49  H   0.81585
   50  H   0.81449
   51  H   0.81755
   52  S   1.91121   1.74538   1.91532   1.37393   0.00211   0.02638   0.02701   0.00994   0.00261
   53  C   1.07281   0.91251   0.91638   0.82697
   54  C   1.05832   1.12233   1.18662   1.09188
   55  H   0.84757
   56  H   0.83759
   57  H   0.84064
   58  C   1.06054   1.17360   1.07019   1.17204
   59  H   0.84385
   60  H   0.87188
   61  H   0.83728
   62  C   1.05990   1.08878   1.15546   1.17486
   63  H   0.84247
   64  H   0.83786
   65  H   0.86535


                    (SZ)    =    1.500000
                    (S**2)  =    4.060459


          ATOMIC ORBITAL SPIN POPULATIONS

    Atom   Total    s     px     py     pz   x^2-y^2  xz     z^2    yz     xy
         Atomic
    1 Co  3.1450  0.070 -0.001 -0.002  0.000  0.841  0.189  0.722  0.359  0.966
    2  C -0.1351  0.016 -0.013 -0.149  0.011
    3  N -0.3248 -0.037 -0.141 -0.133 -0.014
    4  C -0.0315 -0.005 -0.001 -0.011 -0.015
    5  H -0.0042 -0.004
    6  H -0.0035 -0.004
    7  H -0.0079 -0.008
    8  C -0.0006  0.000 -0.000 -0.000 -0.000
    9  C  0.0015  0.000  0.000  0.001 -0.000
   10  C  0.0169  0.004 -0.001  0.000  0.013
   11  N  0.0502  0.036  0.004  0.001  0.009
   12  C  0.0154  0.003  0.011  0.002 -0.001
   13  C  0.0004  0.000 -0.000  0.001 -0.000
   14  H -0.0000 -0.000
   15  H  0.0007  0.001
   16  H -0.0006 -0.001
   17  H -0.0006 -0.001
   18  H  0.0006  0.001
   19  C  0.0034  0.000  0.000  0.001  0.002
   20  C -0.0017  0.000  0.001 -0.001 -0.002
   21  C  0.0199  0.004  0.000 -0.001  0.017
   22  N  0.0498  0.035  0.001  0.004  0.010
   23  C  0.0183  0.003  0.001  0.015 -0.001
   24  C -0.0028 -0.000  0.001 -0.002 -0.002
   25  H -0.0001 -0.000
   26  H  0.0008  0.001
   27  H -0.0008 -0.001
   28  H -0.0006 -0.001
   29  H  0.0007  0.001
   30  C -0.0014  0.000 -0.001 -0.000 -0.001
   31  C  0.0025  0.000  0.001  0.002  0.000
   32  C  0.0163  0.004 -0.002  0.002  0.013
   33  N  0.0579  0.038  0.006  0.008  0.007
   34  C  0.0142  0.003  0.007  0.002  0.002
   35  C  0.0016  0.000  0.000  0.001  0.000
   36  H  0.0000  0.000
   37  H  0.0007  0.001
   38  H -0.0006 -0.001
   39  H -0.0006 -0.001
   40  H  0.0006  0.001
   41  C -0.0102 -0.000 -0.000 -0.005 -0.005
   42  C  0.0097  0.000  0.002  0.004  0.003
   43  C  0.0076  0.004  0.001 -0.002  0.004
   44  N  0.0602  0.037  0.005  0.008  0.010
   45  C  0.0049  0.003  0.003 -0.001  0.000
   46  C  0.0092  0.000  0.002  0.004  0.003
   47  H  0.0003  0.000
   48  H  0.0005  0.000
   49  H -0.0003 -0.000
   50  H -0.0003 -0.000
   51  H  0.0004  0.000
   52  S  0.0147  0.002  0.009  0.011 -0.008  0.000 -0.001  0.002 -0.001  0.000
   53  C  0.0027  0.000  0.000  0.000  0.002
   54  C  0.0003  0.000  0.000  0.000  0.000
   55  H  0.0002  0.000
   56  H  0.0000  0.000
   57  H  0.0000  0.000
   58  C  0.0001  0.000  0.000  0.000 -0.000
   59  H -0.0000 -0.000
   60  H  0.0000  0.000
   61  H  0.0000  0.000
   62  C  0.0001  0.000  0.000  0.000 -0.000
   63  H -0.0000 -0.000
   64  H  0.0000  0.000
   65  H  0.0000  0.000

 **********************
 *                    *
 * JOB ENDED NORMALLY *
 *                    *
 **********************



 TOTAL JOB TIME:            26.79 SECONDS

 == MOPAC DONE ==
