 *******************************************************************************
 ** Site#: 26130        For non-commercial use only     Version 16.299L 64BITS**
 *******************************************************************************
 ** Cite this program as: MOPAC2016, Version: 16.299L, James J. P. Stewart,   **
 ** Stewart Computational Chemistry, web: HTTP://OpenMOPAC.net. Days left: 350**
 *******************************************************************************
 **                                                                           **
 **                                MOPAC2016                                  **
 **                                                                           **
 *******************************************************************************

                              PM7 CALCULATION RESULTS


 *******************************************************************************
 *  CALCULATION DONE:                                Thu Nov 10 15:54:10 2016  *
 *  PM7        - The PM7 Hamiltonian to be used
 *  DOUBLET    - SPIN STATE DEFINED AS A DOUBLET
 *  UHF        - UNRESTRICTED HARTREE-FOCK CALCULATION
 *
 *
 *
 *                 CHARGE ON SYSTEM =    +1
 *
 *
 *
 *  XYZ        - CARTESIAN COORDINATE SYSTEM TO BE USED
 *  EF         - USE EF ROUTINE FOR MINIMUM SEARCH
 *  T=         - A TIME OF 172800.0 SECONDS REQUESTED
 *  DUMP=N     - RESTART FILE WRITTEN EVERY  7200.000 SECONDS
 *  HESSIAN    - WRITE OUT HESSIAN FROM GEOMERY OPTIMIZATION
 *******************************************************************************
 EF PM7 XYZ HESSIAN DOUBLET UHF CHARGE=1
 1001_M_9_2

   ATOM   CHEMICAL          X               Y               Z
  NUMBER   SYMBOL      (ANGSTROMS)     (ANGSTROMS)     (ANGSTROMS)
 
     1      Mn          0.00000000  *   0.00000000  *   0.00000000  *
     2       O          0.00000000  *   2.06000000  *   0.00000000  *
     3       H          0.68502700  *   2.66619800  *  -0.37929400  *
     4       H         -0.68502700  *   2.66618400  *   0.37929400  *
     5       O          2.06000000  *   0.00000000  *   0.00000000  *
     6       H          2.66619800  *   0.02732700  *  -0.78254700  *
     7       H          2.66618400  *  -0.02732700  *   0.78254700  *
     8       O          0.00000000  *  -2.06000000  *   0.00000000  *
     9       H          0.70981700  *  -2.66619800  *  -0.33058500  *
    10       H         -0.70981700  *  -2.66618400  *   0.33058500  *
    11       O         -2.06000000  *   0.00000000  *   0.00000000  *
    12       H         -2.66619800  *   0.02732700  *   0.78254700  *
    13       H         -2.66618400  *  -0.02732700  *  -0.78254700  *
    14       N          0.00000000  *  -0.00000100  *   2.19000000  *
    15       C          1.17724500  *  -0.23579000  *   2.88187200  *
    16       C         -1.17724500  *   0.23578700  *   2.88195600  *
    17       N         -2.16071600  *   0.43266400  *   3.45947300  *
    18       N          2.16071000  *  -0.43283900  *   3.45928300  *
    19       C          0.00007300  *   0.00057200  *  -4.98709800  *
    20       C         -0.62195400  *   1.02741900  *  -4.28423100  *
    21       C         -0.59378000  *   0.98428700  *  -2.89934300  *
    22       N         -0.00000200  *   0.00000800  *  -2.19000000  *
    23       C          0.59377500  *  -0.98427000  *  -2.89984900  *
    24       C          0.62147400  *  -1.02638000  *  -4.28476900  *
    25       H          0.00004500  *   0.00103700  *  -6.07329000  *
    26       H         -1.11609800  *   1.84129900  *  -4.80188200  *
    27       H         -1.06228100  *   1.76400500  *  -2.30568400  *
    28       H          1.06188100  *  -1.76430300  *  -2.30671300  *
    29       H          1.11540700  *  -1.84064000  *  -4.80293800  *
 


          CARTESIAN COORDINATES 

    NO.       ATOM         X         Y         Z

     1        Mn        0.0000    0.0000    0.0000
     2         O        0.0000    2.0600    0.0000
     3         H        0.6850    2.6662   -0.3793
     4         H       -0.6850    2.6662    0.3793
     5         O        2.0600    0.0000    0.0000
     6         H        2.6662    0.0273   -0.7825
     7         H        2.6662   -0.0273    0.7825
     8         O        0.0000   -2.0600    0.0000
     9         H        0.7098   -2.6662   -0.3306
    10         H       -0.7098   -2.6662    0.3306
    11         O       -2.0600    0.0000    0.0000
    12         H       -2.6662    0.0273    0.7825
    13         H       -2.6662   -0.0273   -0.7825
    14         N        0.0000   -0.0000    2.1900
    15         C        1.1772   -0.2358    2.8819
    16         C       -1.1772    0.2358    2.8820
    17         N       -2.1607    0.4327    3.4595
    18         N        2.1607   -0.4328    3.4593
    19         C        0.0001    0.0006   -4.9871
    20         C       -0.6220    1.0274   -4.2842
    21         C       -0.5938    0.9843   -2.8993
    22         N       -0.0000    0.0000   -2.1900
    23         C        0.5938   -0.9843   -2.8998
    24         C        0.6215   -1.0264   -4.2848
    25         H        0.0000    0.0010   -6.0733
    26         H       -1.1161    1.8413   -4.8019
    27         H       -1.0623    1.7640   -2.3057
    28         H        1.0619   -1.7643   -2.3067
    29         H        1.1154   -1.8406   -4.8029

 General Reference for PM7:
 "Optimization of Parameters for Semiempirical Methods VI: More Modifications to the 
 NDDO Approximations and Re-optimization of Parameters", J. J. P. Stewart, J. Mol. Mod., 1:32, 19 (2013)
 http://www.springerlink.com/openurl.asp?genre=article&id=doi:10.1007/s00894-012-1667-x

           Empirical Formula: C7 H13 N4 O4 Mn  =    29 atoms



      MOLECULAR POINT GROUP   :   C1  


 DOUBLET STATE CALCULATION


          UHF CALCULATION, NO. OF ALPHA ELECTRONS =   46
                           NO. OF BETA  ELECTRONS =   45

          Geometry optimization using EF

          DIAGONAL MATRIX USED AS START HESSIAN

 CYCLE:     1 TIME:   0.203 TIME LEFT:  2.00D  GRAD.:   211.228 HEAT:  148.1457
 CYCLE:     2 TIME:   0.055 TIME LEFT:  2.00D  GRAD.:   276.785 HEAT:  145.0083
 CYCLE:     3 TIME:   0.027 TIME LEFT:  2.00D  GRAD.:   101.274 HEAT:  131.6655
 CYCLE:     4 TIME:   0.031 TIME LEFT:  2.00D  GRAD.:   101.682 HEAT:  122.0647
 CYCLE:     5 TIME:   0.031 TIME LEFT:  2.00D  GRAD.:   262.364 HEAT:  117.9653
 CYCLE:     6 TIME:   0.055 TIME LEFT:  2.00D  GRAD.:   228.934 HEAT:  115.2834
 CYCLE:     7 TIME:   0.027 TIME LEFT:  2.00D  GRAD.:    99.007 HEAT:  106.8366
 CYCLE:     8 TIME:   0.027 TIME LEFT:  2.00D  GRAD.:   194.663 HEAT:  104.9418
 CYCLE:     9 TIME:   0.027 TIME LEFT:  2.00D  GRAD.:   134.282 HEAT:  96.61877
 CYCLE:    10 TIME:   0.066 TIME LEFT:  2.00D  GRAD.:   156.389 HEAT:  94.45740
 CYCLE:    11 TIME:   0.027 TIME LEFT:  2.00D  GRAD.:    68.337 HEAT:  88.30392
 CYCLE:    12 TIME:   0.027 TIME LEFT:  2.00D  GRAD.:   251.683 HEAT:  88.17199
 CYCLE:    13 TIME:   0.023 TIME LEFT:  2.00D  GRAD.:    78.858 HEAT:  77.90499
 CYCLE:    14 TIME:   0.105 TIME LEFT:  2.00D  GRAD.:    47.628 HEAT:  76.68792
 CYCLE:    15 TIME:   0.023 TIME LEFT:  2.00D  GRAD.:    35.599 HEAT:  75.66292
 CYCLE:    16 TIME:   0.023 TIME LEFT:  2.00D  GRAD.:    47.142 HEAT:  74.43576
 CYCLE:    17 TIME:   0.027 TIME LEFT:  2.00D  GRAD.:    54.070 HEAT:  73.00673
 CYCLE:    18 TIME:   0.023 TIME LEFT:  2.00D  GRAD.:    74.280 HEAT:  71.28736
 CYCLE:    19 TIME:   0.039 TIME LEFT:  2.00D  GRAD.:   115.555 HEAT:  70.50695
 CYCLE:    20 TIME:   0.027 TIME LEFT:  2.00D  GRAD.:    81.378 HEAT:  68.20618
 CYCLE:    21 TIME:   0.078 TIME LEFT:  2.00D  GRAD.:    37.360 HEAT:  66.34323
 CYCLE:    22 TIME:   0.051 TIME LEFT:  2.00D  GRAD.:    27.006 HEAT:  65.84214
 CYCLE:    23 TIME:   0.027 TIME LEFT:  2.00D  GRAD.:    35.669 HEAT:  65.49354
 CYCLE:    24 TIME:   0.023 TIME LEFT:  2.00D  GRAD.:    36.794 HEAT:  64.88145
 CYCLE:    25 TIME:   0.059 TIME LEFT:  2.00D  GRAD.:    81.238 HEAT:  64.03109
 CYCLE:    26 TIME:   0.031 TIME LEFT:  2.00D  GRAD.:    66.918 HEAT:  60.50394
 CYCLE:    27 TIME:   0.031 TIME LEFT:  2.00D  GRAD.:   100.843 HEAT:  58.25763
 CYCLE:    28 TIME:   0.031 TIME LEFT:  2.00D  GRAD.:    92.249 HEAT:  54.94393
 CYCLE:    29 TIME:   0.051 TIME LEFT:  2.00D  GRAD.:   168.005 HEAT:  53.73241
 CYCLE:    30 TIME:   0.027 TIME LEFT:  2.00D  GRAD.:   138.421 HEAT:  50.07854
 CYCLE:    31 TIME:   0.062 TIME LEFT:  2.00D  GRAD.:   135.359 HEAT:  47.28012
 CYCLE:    32 TIME:   0.027 TIME LEFT:  2.00D  GRAD.:    46.459 HEAT:  44.31192
 CYCLE:    33 TIME:   0.055 TIME LEFT:  2.00D  GRAD.:    83.933 HEAT:  44.13640
 CYCLE:    34 TIME:   0.023 TIME LEFT:  2.00D  GRAD.:    41.898 HEAT:  42.60614
 CYCLE:    35 TIME:   0.051 TIME LEFT:  2.00D  GRAD.:    51.371 HEAT:  42.34959
 CYCLE:    36 TIME:   0.023 TIME LEFT:  2.00D  GRAD.:    36.965 HEAT:  41.62708
 CYCLE:    37 TIME:   0.027 TIME LEFT:  2.00D  GRAD.:    61.073 HEAT:  41.06430
 CYCLE:    38 TIME:   0.023 TIME LEFT:  2.00D  GRAD.:    28.899 HEAT:  39.84832
 CYCLE:    39 TIME:   0.141 TIME LEFT:  2.00D  GRAD.:    20.036 HEAT:  39.69232
 CYCLE:    40 TIME:   0.070 TIME LEFT:  2.00D  GRAD.:    15.553 HEAT:  39.61084
 CYCLE:    41 TIME:   0.113 TIME LEFT:  2.00D  GRAD.:    15.033 HEAT:  39.60134

     TRUST RADIUS NOW LESS THAN  0.00010 OPTIMIZATION TERMINATING
      THE GEOMETRY MAY NOT BE COMPLETELY OPTIMIZED
      (TO CONTINUE, ADD 'LET DDMIN=0.0' TO THE KEYWORD LINE)

 -------------------------------------------------------------------------------
 EF PM7 XYZ HESSIAN DOUBLET UHF CHARGE=1
 1001_M_9_2



     GEOMETRY OPTIMISED USING EIGENVECTOR FOLLOWING (EF).     
     SCF FIELD WAS ACHIEVED                                   


                              PM7 CALCULATION
                                                       MOPAC2016 (Version: 16.299L)
                                                       Thu Nov 10 15:54:12 2016
                                                       No. of days remaining = 350




          FINAL HEAT OF FORMATION =         39.60128 KCAL/MOL =     165.69177 KJ/MOL


          TOTAL ENERGY            =      -3184.73786 EV
          ELECTRONIC ENERGY       =     -19842.55733 EV  POINT GROUP:     C1  
          CORE-CORE REPULSION     =      16657.81947 EV
          COSMO AREA              =        244.24 SQUARE ANGSTROMS
          COSMO VOLUME            =        278.48 CUBIC ANGSTROMS

          GRADIENT NORM           =         15.03257
          IONIZATION POTENTIAL    =         12.251431 EV
          ALPHA SOMO LUMO (EV)    =        -12.838 -5.599
          BETA  SOMO LUMO (EV)    =        -12.251 -5.218
          NO. OF ALPHA ELECTRONS  =         46
          NO. OF BETA  ELECTRONS  =         45
          MOLECULAR WEIGHT        =        272.1421

          MOLECULAR DIMENSIONS (Angstroms)

            Atom       Atom       Distance
            H    25    N    18     8.97734
            H    12    H     6     5.68638
            H    29    H     4     4.28558


          SCF CALCULATIONS        =         67
 
          WALL-CLOCK TIME         =          2.000 SECONDS
          COMPUTATION TIME        =          7.878 SECONDS



       FINAL  POINT  AND  DERIVATIVES

   PARAMETER     ATOM    TYPE            VALUE       GRADIENT
      1          1 Mn    CARTESIAN X     0.004600    -0.351557  KCAL/ANGSTROM
      2          1 Mn    CARTESIAN Y     0.064097     1.298299  KCAL/ANGSTROM
      3          1 Mn    CARTESIAN Z     0.028307     2.259657  KCAL/ANGSTROM
      4          2  O    CARTESIAN X    -0.107501    -2.477974  KCAL/ANGSTROM
      5          2  O    CARTESIAN Y     1.975072    -2.383595  KCAL/ANGSTROM
      6          2  O    CARTESIAN Z    -0.220119    -1.383182  KCAL/ANGSTROM
      7          3  H    CARTESIAN X     0.808175     2.785788  KCAL/ANGSTROM
      8          3  H    CARTESIAN Y     2.096493     0.980203  KCAL/ANGSTROM
      9          3  H    CARTESIAN Z     0.270220    -0.747198  KCAL/ANGSTROM
     10          4  H    CARTESIAN X    -0.770344     1.268042  KCAL/ANGSTROM
     11          4  H    CARTESIAN Y     2.111329    -1.151217  KCAL/ANGSTROM
     12          4  H    CARTESIAN Z     0.574896     0.756760  KCAL/ANGSTROM
     13          5  O    CARTESIAN X     2.230890     0.524276  KCAL/ANGSTROM
     14          5  O    CARTESIAN Y    -0.345324     0.576205  KCAL/ANGSTROM
     15          5  O    CARTESIAN Z    -0.089749     1.951836  KCAL/ANGSTROM
     16          6  H    CARTESIAN X     2.664393    -1.553972  KCAL/ANGSTROM
     17          6  H    CARTESIAN Y     0.172825     1.434983  KCAL/ANGSTROM
     18          6  H    CARTESIAN Z    -0.807939     0.048996  KCAL/ANGSTROM
     19          7  H    CARTESIAN X     2.844047    -3.162579  KCAL/ANGSTROM
     20          7  H    CARTESIAN Y    -0.178590     0.710486  KCAL/ANGSTROM
     21          7  H    CARTESIAN Z     0.670986    -1.245388  KCAL/ANGSTROM
     22          8  O    CARTESIAN X     0.003962     3.384280  KCAL/ANGSTROM
     23          8  O    CARTESIAN Y    -1.864594     0.496531  KCAL/ANGSTROM
     24          8  O    CARTESIAN Z    -0.152848    -1.115445  KCAL/ANGSTROM
     25          9  H    CARTESIAN X     0.929243    -3.811997  KCAL/ANGSTROM
     26          9  H    CARTESIAN Y    -1.914271    -1.816076  KCAL/ANGSTROM
     27          9  H    CARTESIAN Z     0.320760    -1.982188  KCAL/ANGSTROM
     28         10  H    CARTESIAN X    -0.650909    -1.419234  KCAL/ANGSTROM
     29         10  H    CARTESIAN Y    -2.043428    -2.440087  KCAL/ANGSTROM
     30         10  H    CARTESIAN Z     0.624956    -1.988193  KCAL/ANGSTROM
     31         11  O    CARTESIAN X    -2.242917    -2.616567  KCAL/ANGSTROM
     32         11  O    CARTESIAN Y     0.268731    -1.469977  KCAL/ANGSTROM
     33         11  O    CARTESIAN Z    -0.102865     3.177945  KCAL/ANGSTROM
     34         12  H    CARTESIAN X    -2.829335     4.174974  KCAL/ANGSTROM
     35         12  H    CARTESIAN Y     0.050376    -0.451749  KCAL/ANGSTROM
     36         12  H    CARTESIAN Z     0.660250    -2.829572  KCAL/ANGSTROM
     37         13  H    CARTESIAN X    -2.637094     1.917780  KCAL/ANGSTROM
     38         13  H    CARTESIAN Y    -0.286842     0.461441  KCAL/ANGSTROM
     39         13  H    CARTESIAN Z    -0.812578     0.723701  KCAL/ANGSTROM
     40         14  N    CARTESIAN X     0.082191     0.670387  KCAL/ANGSTROM
     41         14  N    CARTESIAN Y     0.420051     3.713848  KCAL/ANGSTROM
     42         14  N    CARTESIAN Z     1.859236     0.489277  KCAL/ANGSTROM
     43         15  C    CARTESIAN X     1.153925     1.677651  KCAL/ANGSTROM
     44         15  C    CARTESIAN Y    -0.202837     0.716481  KCAL/ANGSTROM
     45         15  C    CARTESIAN Z     2.458291    -0.889433  KCAL/ANGSTROM
     46         16  C    CARTESIAN X    -1.142779    -2.427486  KCAL/ANGSTROM
     47         16  C    CARTESIAN Y     0.209617     0.204145  KCAL/ANGSTROM
     48         16  C    CARTESIAN Z     2.456283    -1.412688  KCAL/ANGSTROM
     49         17  N    CARTESIAN X    -2.177189    -1.531629  KCAL/ANGSTROM
     50         17  N    CARTESIAN Y     0.168759     1.133715  KCAL/ANGSTROM
     51         17  N    CARTESIAN Z     2.985546     1.940337  KCAL/ANGSTROM
     52         18  N    CARTESIAN X     2.134916     1.159042  KCAL/ANGSTROM
     53         18  N    CARTESIAN Y    -0.609495    -0.283858  KCAL/ANGSTROM
     54         18  N    CARTESIAN Z     2.931549     0.730840  KCAL/ANGSTROM
     55         19  C    CARTESIAN X     0.000189    -1.658869  KCAL/ANGSTROM
     56         19  C    CARTESIAN Y    -0.011399     1.027335  KCAL/ANGSTROM
     57         19  C    CARTESIAN Z    -4.667767     3.364292  KCAL/ANGSTROM
     58         20  C    CARTESIAN X    -0.668855     1.399863  KCAL/ANGSTROM
     59         20  C    CARTESIAN Y     0.976674    -0.339738  KCAL/ANGSTROM
     60         20  C    CARTESIAN Z    -3.954682     1.345884  KCAL/ANGSTROM
     61         21  C    CARTESIAN X    -0.688059     0.071572  KCAL/ANGSTROM
     62         21  C    CARTESIAN Y     0.935367     0.015345  KCAL/ANGSTROM
     63         21  C    CARTESIAN Z    -2.559641    -1.056986  KCAL/ANGSTROM
     64         22  N    CARTESIAN X    -0.004807    -0.548587  KCAL/ANGSTROM
     65         22  N    CARTESIAN Y    -0.025958     1.127026  KCAL/ANGSTROM
     66         22  N    CARTESIAN Z    -1.858751    -1.603680  KCAL/ANGSTROM
     67         23  C    CARTESIAN X     0.671881     0.230242  KCAL/ANGSTROM
     68         23  C    CARTESIAN Y    -0.991805    -1.573304  KCAL/ANGSTROM
     69         23  C    CARTESIAN Z    -2.564067     0.675757  KCAL/ANGSTROM
     70         24  C    CARTESIAN X     0.664257     0.651567  KCAL/ANGSTROM
     71         24  C    CARTESIAN Y    -1.012141    -0.702521  KCAL/ANGSTROM
     72         24  C    CARTESIAN Z    -3.961841    -0.092848  KCAL/ANGSTROM
     73         25  H    CARTESIAN X     0.007517     0.017235  KCAL/ANGSTROM
     74         25  H    CARTESIAN Y    -0.000771     0.342213  KCAL/ANGSTROM
     75         25  H    CARTESIAN Z    -5.768812    -2.393281  KCAL/ANGSTROM
     76         26  H    CARTESIAN X    -1.187470     0.601602  KCAL/ANGSTROM
     77         26  H    CARTESIAN Y     1.792900     0.714582  KCAL/ANGSTROM
     78         26  H    CARTESIAN Z    -4.469469     0.948502  KCAL/ANGSTROM
     79         27  H    CARTESIAN X    -1.280571     0.309465  KCAL/ANGSTROM
     80         27  H    CARTESIAN Y     1.697951    -0.375771  KCAL/ANGSTROM
     81         27  H    CARTESIAN Z    -2.011960     0.935098  KCAL/ANGSTROM
     82         28  H    CARTESIAN X     1.244825     0.881173  KCAL/ANGSTROM
     83         28  H    CARTESIAN Y    -1.773033    -0.996662  KCAL/ANGSTROM
     84         28  H    CARTESIAN Z    -2.027648    -0.099792  KCAL/ANGSTROM
     85         29  H    CARTESIAN X     1.183205    -0.164192  KCAL/ANGSTROM
     86         29  H    CARTESIAN Y    -1.819703    -0.968418  KCAL/ANGSTROM
     87         29  H    CARTESIAN Z    -4.492410    -0.508258  KCAL/ANGSTROM




   ATOM   CHEMICAL          X               Y               Z
  NUMBER   SYMBOL      (ANGSTROMS)     (ANGSTROMS)     (ANGSTROMS)
 
     1      Mn          0.00459979  *   0.06409690  *   0.02830652  *
     2       O         -0.10750058  *   1.97507228  *  -0.22011891  *
     3       H          0.80817454  *   2.09649262  *   0.27021967  *
     4       H         -0.77034418  *   2.11132857  *   0.57489632  *
     5       O          2.23088984  *  -0.34532380  *  -0.08974851  *
     6       H          2.66439273  *   0.17282545  *  -0.80793882  *
     7       H          2.84404714  *  -0.17859025  *   0.67098641  *
     8       O          0.00396196  *  -1.86459396  *  -0.15284829  *
     9       H          0.92924281  *  -1.91427094  *   0.32075992  *
    10       H         -0.65090936  *  -2.04342765  *   0.62495611  *
    11       O         -2.24291677  *   0.26873123  *  -0.10286499  *
    12       H         -2.82933538  *   0.05037557  *   0.66025017  *
    13       H         -2.63709409  *  -0.28684224  *  -0.81257795  *
    14       N          0.08219092  *   0.42005055  *   1.85923588  *
    15       C          1.15392472  *  -0.20283701  *   2.45829065  *
    16       C         -1.14277923  *   0.20961700  *   2.45628346  *
    17       N         -2.17718863  *   0.16875942  *   2.98554579  *
    18       N          2.13491624  *  -0.60949466  *   2.93154895  *
    19       C          0.00018880  *  -0.01139885  *  -4.66776721  *
    20       C         -0.66885468  *   0.97667364  *  -3.95468180  *
    21       C         -0.68805876  *   0.93536735  *  -2.55964096  *
    22       N         -0.00480725  *  -0.02595796  *  -1.85875117  *
    23       C          0.67188120  *  -0.99180471  *  -2.56406652  *
    24       C          0.66425733  *  -1.01214069  *  -3.96184054  *
    25       H          0.00751693  *  -0.00077121  *  -5.76881183  *
    26       H         -1.18746990  *   1.79289952  *  -4.46946931  *
    27       H         -1.28057072  *   1.69795086  *  -2.01196019  *
    28       H          1.24482454  *  -1.77303329  *  -2.02764775  *
    29       H          1.18320538  *  -1.81970252  *  -4.49240955  *

                             CARTESIAN COORDINATES

   1   Mn        0.004599786     0.064096897     0.028306523
   2    O       -0.107500576     1.975072282    -0.220118911
   3    H        0.808174537     2.096492619     0.270219666
   4    H       -0.770344178     2.111328569     0.574896321
   5    O        2.230889842    -0.345323797    -0.089748514
   6    H        2.664392732     0.172825451    -0.807938822
   7    H        2.844047137    -0.178590254     0.670986414
   8    O        0.003961961    -1.864593961    -0.152848294
   9    H        0.929242814    -1.914270937     0.320759916
  10    H       -0.650909364    -2.043427653     0.624956113
  11    O       -2.242916769     0.268731229    -0.102864990
  12    H       -2.829335378     0.050375567     0.660250170
  13    H       -2.637094094    -0.286842240    -0.812577951
  14    N        0.082190917     0.420050550     1.859235876
  15    C        1.153924723    -0.202837008     2.458290652
  16    C       -1.142779235     0.209617001     2.456283458
  17    N       -2.177188634     0.168759423     2.985545785
  18    N        2.134916236    -0.609494665     2.931548953
  19    C        0.000188803    -0.011398855    -4.667767213
  20    C       -0.668854681     0.976673643    -3.954681798
  21    C       -0.688058761     0.935367354    -2.559640958
  22    N       -0.004807249    -0.025957955    -1.858751169
  23    C        0.671881201    -0.991804712    -2.564066520
  24    C        0.664257333    -1.012140687    -3.961840538
  25    H        0.007516933    -0.000771207    -5.768811833
  26    H       -1.187469904     1.792899523    -4.469469312
  27    H       -1.280570718     1.697950859    -2.011960195
  28    H        1.244824543    -1.773033291    -2.027647746
  29    H        1.183205376    -1.819702520    -4.492409552


           Empirical Formula: C7 H13 N4 O4 Mn  =    29 atoms

    Hessian matrix from geometry optimization
  166.2306
  -33.9505  677.9356
  -21.0903  112.0663  977.3338
  -32.5526  -22.9957   32.7274  232.7891
   11.0882 -245.3185   31.4153   39.6701  376.9651
    2.9990  116.6852 -116.3230  -23.5514  -23.2423  451.1966
    0.9456  -25.8789  -23.6430  -62.8940  -45.6378  -88.3513  290.2925
    2.8637   -3.6126  -18.9896  -18.3859  -32.9492  -24.6257   38.2660  184.2149
   -0.2518    1.5134   -9.8282  -18.8226  -20.8018  -62.6147   41.5942   28.5039  204.2290
   -6.3567   78.1892  -26.8261  -30.8139  -24.9546  144.9920  -32.3689  -18.7295  -17.8770  269.4106
   -4.2106  -12.2179   15.5690    9.6213  -39.6454  -59.5375   26.0882   -4.8532   18.1445  -39.2344
  201.4787
   -3.8380  -99.1978   19.4786   38.6446   17.5988 -207.8614   49.0869   23.3835   31.7925 -118.0028
   61.1268  369.1130
  -27.2426   44.2549   -0.0442   -7.8782  -43.7218  -11.8122   15.8774    3.5718   13.7840    0.1225
    5.5788    7.8237  204.4366
   -4.4059  -74.7522    7.1981   54.1909    2.3436  -23.1165   -3.9390  -12.0463   -4.4153  -20.7636
    1.3223   35.7002    4.8908  172.1383
   19.8834   69.0819 -127.8140  -91.7171  -39.0180   42.4759   46.1367   12.8716   16.5827   50.1632
  -32.5579  -82.1832   -9.7904  -65.0295  400.2519
    4.0444   25.9592   -1.5980  -36.9319   -2.9039   20.7222   12.3662   -1.2888    5.8282   19.6350
  -22.8239  -31.1408  -26.5233  -19.8123   84.6066  227.3788
   12.3208   11.7222  -26.4690  -29.9939   10.8991   25.1095    7.6573   -4.1039    4.5361   22.3919
   -9.5571  -36.6191  -21.0612  -30.8791   97.4858   40.3216  238.9836
  -11.1348  -38.9300   11.9293   56.7040    4.1821  -43.3328  -12.5623   -5.6370    0.2156  -35.6192
   21.8191   57.2632   17.7144   44.8307 -144.9142  -64.9296  -70.8669  294.5946
   -6.7311  -36.3443   21.9657   27.7144   24.3957  -16.6723  -18.5404   -0.2565  -14.0636  -19.8007
    5.3899   31.3831  -20.5845   23.3323  -62.8583  -26.9772  -21.1442   32.4285  222.0056
    1.4255  -26.9218    5.7717   24.8604   24.1943   -2.4477  -12.7113  -17.7831    7.6990   -7.0821
   -1.5126    9.6279  -15.9884    5.9791  -29.6025  -15.3677  -20.3382    8.7300   11.8097  187.2218
   -5.2803  -54.6768   26.7813   53.2189   36.8358  -24.1838  -34.0270  -15.2071  -12.4225  -31.8997
    9.7762   42.7051   -7.9396   30.7632 -115.2975  -38.3246  -39.2863   57.8917   41.3115   16.3230
  259.4492
  -33.5953  -22.5542   44.6158   23.0764   -2.8551  -33.0195   14.9036   -0.6159   15.1126    3.9059
   11.9652    8.4578   14.0018   -7.2907  -47.5636  -31.8923  -48.1916   46.1641  -16.1529  -10.6271
    2.9118  277.8803
   19.5685 -307.6497 -124.4470   -6.4767   12.7676  -46.7258   47.4095   34.1965   -4.3166  -37.6597
   43.8667   55.5840   -0.2853   24.3148  -38.8008  -19.6357  -28.0600   35.7696   13.4240    1.2498
   24.8108   23.1252  452.1669
   10.4240 -213.0207  -88.6619   16.7773  129.3323   33.9737  -38.6075  -13.2363  -24.8565   32.1248
  -32.1748  -38.0933  -23.6488   16.4260  -33.4627   -7.2217   -2.5264    9.9542    3.4627   15.7773
   15.2507   40.6982   84.3574  333.6683
    4.1635   98.5373  -26.5932  -23.6751  -67.9929  -12.5683   17.0721   26.7280   -6.1065  -15.0383
   21.0494   29.6787  -23.8143  -16.2949   48.8696   21.8928   33.9110  -38.7953    6.4808   -3.1108
   -2.1934 -129.9287  -33.5510 -131.6593  370.1120
   -0.5681  -27.1569    1.7648    0.6090   32.0669   -2.7901   -8.0657   16.5363  -20.6600   15.2148
   12.3031   -9.1557    6.2992    2.1253   -1.7930    5.2643   -6.2984   11.6170   -3.5863   14.7370
    7.9641   14.8871  -29.6818   16.5283  -45.1181  169.9900
    3.4430   70.7349  -27.4016  -10.0710  -38.4905   -1.4443    3.9558   19.3054  -17.7554   -5.8601
   14.4487   12.7880   -6.2854   -3.5680   22.5522   11.0353   17.0769  -17.2541    0.4139    6.2880
    0.7960  -65.8835  -40.1843  -77.6259   90.8719  -37.1663  235.7083
    2.0694  -70.6601  -11.9615    9.1183   70.0432   35.2651  -29.3052  -11.7897  -18.6846   14.2031
  -27.0345  -29.4144  -29.7559   -9.0892   22.9452   13.3095   22.2730  -24.9310   -0.4244    6.9104
    0.1996  -29.7875   -0.4328   61.5588  -19.5048    8.7447  -11.0919  240.0251
    2.2830  -19.1719   15.1326   -0.1480   31.2740    9.7642  -18.2389   23.1347  -23.5507   20.2247
   -6.0213  -16.6540  -13.5024    2.7506   16.3923    7.3142   16.4456  -11.9257  -10.1837   13.3223
    2.7202  -15.5765  -39.2446    4.5299  -19.0826  -20.3600  -17.0874   17.2444  170.2436
  -12.2803  118.3590   21.1512  -10.3288 -121.8428  -64.5863   53.3622   35.4595   12.7210  -26.2313
   32.7974   57.1070   30.9455   -2.9028  -22.6436  -20.8763  -15.3672   28.7495  -10.9796    0.1795
   -0.8452   12.5902  -11.5224 -122.7522   47.0061  -26.9619   17.2646  -72.4342  -49.7926  287.0154
  -14.6469   -4.6449    7.7208  -12.0504   42.5849  -23.1489  -20.9146   -1.4572   -6.3561  -31.8396
    0.4314   27.3266  -40.4238   -3.1538    4.7505   24.8462   26.4020  -19.7663   33.0333   19.3268
   22.0377  -92.7476  -47.8871  -29.9801   92.4869  -12.6967   53.8831   23.3598   20.1821  -11.8406
  283.3806
   10.7439  -86.4689   -6.5727  -27.5086   43.1302  -68.7280    6.9169    5.0746   13.1837  -35.5236
    3.2974   46.3178  -24.3077   25.8904   27.2037    8.3984   18.4219  -25.8055    0.6720   -1.1878
   -0.0507  -12.4035  -11.6089    1.0582   26.4708   -3.7197    9.3202   28.0460   -1.7128  -18.0462
   49.8793  191.3865
    4.0822  -44.6218 -105.0584  -17.0359   -4.0019 -121.2500   49.1810    3.7570   36.3062  -41.3075
   11.6971   47.2815   10.5077  -31.0522  145.3408   45.1535   55.0041  -78.3705  -59.3564  -24.1097
  -80.6813   40.4806   35.3643   10.0303  -38.3081    7.2262  -25.6739    6.0039    9.6732   -9.6155
  -54.6982   50.4910  508.2762
   -8.6146   -8.9654  -26.1470  -19.0353  -25.2824   -3.6550   23.3149   -2.2819   15.3336    9.4107
    5.0069  -18.5332   30.0766  -19.2661   57.4879   15.3268    8.5154  -17.2214  -35.5151  -13.9410
  -45.9718   66.9142   35.7050   35.2993  -71.0597    6.6275  -40.7273   -8.2577    5.1256    8.1999
  -97.1937   -8.4897  137.2035  294.5000
   -4.7131    1.7094    0.2989  -14.5316  -32.6876  -11.7620   15.6065    9.7776    0.0017    0.6162
    0.4596    1.6643   21.9386   -7.9959   21.4807    5.2804    9.7218   -0.7619  -18.6507    5.9312
  -19.0746   41.2805   12.4660   -1.7755  -29.7733   -6.7350  -23.0482  -11.9665  -14.7776    1.5572
  -45.8620  -11.0145   64.0422   45.9008  209.0762
    2.3699   -2.1513   18.5321   19.5039   43.0864   16.7779  -36.1790   -9.7768  -13.8065  -12.6923
   -8.6508   10.8975  -33.7748   19.4487  -78.1434  -15.2673  -13.3404   26.0547   52.2190   16.5255
   58.7113  -82.7729  -39.0154  -29.9617   86.5615    2.3246   56.2980   15.0652   13.0443   -5.7294
  102.7934   13.7285 -195.3188 -129.4074  -56.9544  361.4732
  -11.5812   12.7993  -17.5846   -3.6363  -19.4634   59.3642   -9.8343   -0.5845  -12.1552   26.1922
    2.4321  -39.2533   20.1998    1.8216  -41.5496  -12.0877  -25.9842   36.4452    9.9284    6.7917
   11.8907   22.7329   10.8716   16.8108  -26.7480   -4.0993  -15.0658  -10.6436   -1.4334   12.4926
  -45.7008  -29.1942  -80.0111  -11.9586   -4.0214   12.8145  232.6986
   -9.8830   28.3496    1.7985   -2.3543  -47.6332   74.6861  -10.9634   -3.3054  -10.5762   30.8357
  -13.0564  -45.8519   23.3655    8.0218  -64.1429  -28.4400  -30.5305   46.5903    8.4015    6.8417
   16.7410   44.6938   17.2978   10.6889  -31.6688   11.7075  -14.1349  -22.5295  -11.2692   16.4196
  -46.6034  -54.7552 -110.8555   -7.4249   -8.9109   14.4988   56.3707  268.3688
  -10.9599   45.9203   -7.6168    5.8833  -48.0304   93.1778  -13.3386   -4.2001  -11.8995   44.2847
  -10.3592  -57.5202   16.9579   18.6230  -87.5046  -44.9024  -52.7297   61.1859   11.2704   -2.3832
   26.9752   37.0234   15.8144    8.0412  -38.1700   12.2608  -16.5760  -26.4958  -12.5846   21.7623
  -39.7022  -68.8684 -169.5377  -19.5449   -4.0427   34.5761   82.2158  102.1247  334.5797
  -53.6838   -8.2271  -18.7039  -44.0402  -23.8799    4.0411  -15.1602    2.7445   -3.3559  -15.9360
    8.2220    6.1880  -29.3501   11.7598   32.9986   12.5384   27.4347  -16.9257    3.3340   21.6042
   11.7621    1.9997   38.0927  -33.2092   34.1394   -8.2903    8.0245   -6.5429   -9.9974   22.7173
   -1.4786  -24.3957  -37.5296  -20.7368  -22.0970   23.4012   -6.6398   -9.7630   -5.3124 1352.9518
   26.5598 -143.0689 -109.5173  -53.6126   26.3538   29.8846   41.3871   -0.7740    8.9473   19.7347
   -4.3412  -27.9847    8.8647  -26.8606   40.0043   20.5814    8.1661  -14.9237   -6.7015   -7.2584
  -16.7528   -7.6604   63.0017   37.8448   -4.7528  -15.5854  -18.9321   14.3501    6.2482  -14.5159
  -18.7724    0.3740  -19.0952   -6.0608   -7.5127   10.8491    4.8788   20.5007   28.1165 -165.6553
  325.7039
   -3.6376  -93.8116 -653.4387   10.0353   53.3120    7.6135    1.0751    9.4042  -20.9914  -17.7260
   15.4706   11.6326    0.0104   28.8321   18.5906    5.6654  -27.9036   17.6053   16.0202   13.7452
    6.9818   18.6848   22.1435   73.8193  -35.1864  -13.1290  -21.8243    7.1902    1.1093  -16.9611
   -8.7725    3.4681   27.2552  -16.5166   -4.7666    4.5462  -10.0568   15.1526   11.8738   56.3897
  -87.4129 1315.6821
  -16.3295    3.1662    7.3795   21.0209  -71.1778   47.0900   -6.0790   18.1504  -24.8542    8.0967
   11.9924  -17.3404   82.9994   12.8592    4.8905  -35.7022   -1.3112   55.1313  -38.2656   -3.8193
  -20.7287   14.8267   34.6394  -18.1726    0.7681  -18.1945   17.9192  -18.0881  -13.5445    1.3129
 -114.0044  -23.0858   46.1826   69.3582   14.6084  -89.2546   31.6731    9.6297   53.9921 -448.1454
   95.5005 -230.5259 2435.3898
   -9.0290  -21.9621   32.8887   29.0994   53.0267  -17.9098  -25.9359  -21.5093    4.8045  -14.2246
    0.0344   20.9046  -33.5341  -12.0485  -36.6131    3.9653  -20.3606    2.4465   29.1846    0.2637
   32.5891  -11.8986  -64.0900    5.1297  -14.6158    5.6330   -8.2539   11.5019   11.5720   -6.3659
   45.9192   10.6750  -39.0031  -45.6286  -11.5829   49.7838  -17.5000   -3.2269  -16.2589  162.1646
  -98.7638  109.9778 -522.2573  341.6018
    7.8718  -21.0105   47.3191   11.6226   -9.3139    3.6732    0.0062    6.2406  -12.2533   -5.2277
    1.2586   -4.0603   58.3183    3.3870  -29.3790  -16.1187   11.1421   21.5681   -9.9365    4.2518
   -5.4287    2.8732    1.6346  -24.4366   21.8669   -2.0323   19.4056   -1.8407    1.9736   -8.4354
  -44.0186    4.9833   -5.2470   11.1324   -9.3472  -11.7546    8.2344   -7.7571   14.7006 -212.7597
   90.9658 -280.3972 1263.7953 -300.0536  999.0322
    0.5957   82.6909  -17.9546  -37.0164  -56.7358  -24.2861   55.2214   21.5282   41.2780  -18.2322
   -8.3033   -8.3557   13.2594   17.1424   19.7668    5.1908  -40.2170   30.7233  -10.9556   -9.2017
  -33.7058   53.0900  -88.5289   -1.3174  -41.1434   23.4964  -14.9640  -21.9493   10.7387   26.1847
   -1.5588   -6.5329   38.8609   -4.3938    8.4889  -35.2464  -31.4274   11.8841  -26.4080 -619.8962
   44.3737  160.7779 -218.0306  -30.1296  104.6457 2859.7597
  -10.7790    2.2473  -46.6640   15.2558  -12.2759   -4.7627  -15.5952    0.0539    7.7855   -4.4184
   -1.7429   18.3997    8.5053   11.8715  -24.0053  -15.7168  -20.7628   28.5669    3.0202   -0.6254
    3.8750   20.0615  -37.6855   -2.7056  -25.8628    3.4569   -6.8195    5.0513   -4.9940   -1.4023
  -12.1763  -28.4656   21.5189   13.3255    5.1716  -19.3078    6.8129   -3.5212    8.3108  -58.6702
  -81.5688  116.2005   73.0692  -19.4509  -19.7862 -125.5574  299.7929
   -6.2902  -30.9893   62.4847   -5.6684   21.3399   -1.9700  -13.6568    6.2361  -11.4300   21.2282
  -10.3894   -0.1741  -11.0952  -14.3761   -9.5133   -0.7067   32.3499  -21.0183    7.9738    3.5500
   13.2362  -76.9582   35.4632  -26.4352   51.2114  -12.5961   38.5809   24.2107   -5.4613  -29.9709
    9.9295   13.4101  -72.5589  -17.7060  -14.8510   38.2909   25.5100  -13.0957   17.3624  214.2938
    5.9132 -285.3568  132.0342  -41.4474   11.4514-1296.0514   83.4770 1055.1109
  -42.9109  -16.6145   53.0474   45.1289   57.4968   77.5551  -89.5850  -15.9373  -71.2245   21.7704
   -2.6762  -38.3928  -24.2296  -20.9009   -1.4605   -1.2500   39.1371  -29.6286   -1.8750   10.0401
   31.1071  -84.4634   19.9666   21.3321   27.1606  -23.0586   20.4371   14.2186   -7.0072  -60.5575
  -34.8328   13.0944  -50.4672   -0.9512   -9.3089   16.8621   12.6164  -14.9574    4.9758  -53.8567
  -36.6726   98.0756  110.5846    3.1358  -71.2621-1991.4165  130.9877 1023.7083 2108.1792
    3.3131  -58.0154   19.1104  -37.3221  -21.6014   37.3926    7.2154   -7.0073    4.8331    0.8234
  -13.5527  -15.1608    3.7643    9.0489    0.3155   -1.4418    6.6191   -5.1372   -2.9363   -1.8025
   -4.7053   39.4904   37.1465    7.9621   -5.7272    8.1126  -14.4295    1.1756   -3.1918   -3.4721
  -20.4537  -49.3986  -15.9909    8.5965   -9.5662  -10.9204   14.3928    7.4498   15.2525   34.7138
   14.8361  -52.5888  -22.9361  -17.1871    0.0116  104.6772 -102.2230  -80.1465 -127.4674  194.0570
    0.7960   10.3573 -120.7638  -18.7196  -53.3415  -28.3145   32.1610    5.3625   30.0265  -23.8745
   -2.0443   14.0741   15.7605    3.9009  -15.2315   -2.3215  -16.9712   33.9114    9.3835    8.4439
   -4.8278   47.1153    7.1120  -27.1181   -2.9989   20.5486   -1.0643  -25.5839    0.3907   39.0384
    2.2425   -3.0215  -21.4442  -17.4561  -10.3028   -7.1436   -7.2489    8.6733    5.4118   88.2035
   19.2503   27.4869 -106.0589   27.8432   -3.9613 1053.1046  -90.8856 -692.4857-1142.0628   86.0898
  879.2883
    0.0915   -2.2413  -41.4528  -79.6683   60.4058  -43.5251   51.6203  -17.4530   59.6876   22.3540
  -28.3158    2.5732 -106.0453  -39.9469   51.3246   25.7030   -1.9572  -56.6409   11.0084  -27.7121
    2.1276  -78.3167  -31.6519    3.2683   -3.6720   21.0461   -7.7180   12.3152   18.1241    3.4789
  103.2447   29.4275  -90.0415  -72.6081    1.3303   84.8587   -0.0535   16.1661  -23.4138 -157.3003
   88.7456  -70.9847-1743.5765  361.3931-1026.5839  118.7532  -31.1294  -99.7431 -118.9783    8.7927
   59.4567 1971.1321
    2.0218  -45.7418   -8.5216   35.0503  -28.8364   39.6265   -6.9255   -3.9449  -12.2854    2.0104
   -3.3236   -3.6101    4.2370  -30.0882   15.6786   -3.2794    6.1143   -7.4927  -11.6555  -15.5519
  -11.1168  -33.4006   26.5069   -9.4554   20.3597   -9.2009   15.1333   -0.6856   -2.5230  -18.0507
  -11.7339    9.3229   40.3382   24.3775    7.4490  -29.2143   -2.6666  -13.7598  -20.7443   49.1937
  -30.2387   12.9943  410.8286 -143.5616  249.2557  -33.7307  -13.8283   48.6129   45.2378  -10.2542
  -35.6917 -469.6965  283.8947
    9.7212   -7.3208  -96.1845  -18.5295   -2.9718  -54.1693   34.3692   -0.8069   34.2137   -1.4740
  -16.7817   34.2645  -42.6673  -20.6170  -33.9515   -1.8190   -7.8119   -7.2045   20.5353   -4.6582
    3.5467  -28.9131   20.0631  -23.9466    5.7680   17.6887    4.2201   -5.6587   -5.4315   12.0060
   54.1873   19.6785  -39.3711  -30.5255   -3.5978   36.7029    9.9483    2.7719    3.4946  -89.2517
   42.3788   23.8024-1007.3630  217.0444 -693.7085  -28.0208   23.3499  -14.6835   26.9987  -19.1531
  -20.1360 1123.6218 -285.3386  891.8648
   -1.3625  -63.2837   -6.2340  -12.5319    1.1073   21.1344    5.1269    9.4205  -23.0241   -5.3944
    2.2572    1.4499   -6.5759   15.2898  -10.3730   -9.6969   -1.7986   -0.7969   -1.4433   -0.7391
   -9.0598  -40.9912   55.6018   17.1519   29.8333  -18.8331    8.1376   12.1784    5.3792  -21.8050
  -11.0808    0.6585   -6.0963   -6.6977   -7.3426   13.2947    4.5475   -0.9335   11.7028    7.8119
  -27.5752  -13.6777   59.3073  -32.7853   -4.3478   74.6505   -2.4755  -34.9864  -23.8332   26.5014
   64.4503  -63.3635   57.3160  -24.1325  521.1689
  -17.0498   31.8862   -7.3346   19.1712    0.3716  -54.8067  -15.4664  -14.9677   21.6500   -5.5358
    1.7027   10.9442   -6.3219  -22.3952  -16.9255    3.0710   -2.8782    0.4406    5.5638    2.9703
   14.6595   45.1500  -48.6948    8.5314  -47.9633   25.0963  -13.4678  -13.8877  -10.4617   27.2498
    1.5482   -3.3030   54.8856   17.1166   13.3110  -22.1057  -17.1308  -11.0919  -24.0446   -6.1230
   48.0729   14.0900  -39.1798   46.2128   24.9459  -88.0202   19.6735   76.2198   58.0646  -23.5287
  -84.5723   58.4812  -45.8463   -8.5688 -547.1151 1017.1237
   -8.8980   40.6100  -46.4097  -37.6414   -6.1936  -85.2503   67.4803   19.2424   42.8703  -19.8365
   17.0598   20.0065   18.2132  -12.6064    7.3310   10.5448  -14.2509   -9.4497  -12.7011  -11.3610
  -18.6349   42.8186  -52.9974  -37.5185  -16.9449   11.9834  -17.1159  -39.7779  -13.6655   62.0548
  -10.2594   -2.1352  -51.0912   -6.0371    8.0165    9.2581   13.1418   23.8666   29.5928   50.0301
   22.2563   32.1222 -148.8885   31.5389  -27.9237 -157.7361   17.4078  113.9719  119.0032  -14.0715
  -98.1481  141.2862  -76.7933   30.9362  -27.6178  -12.6513 1243.7178
  -26.6441   56.0206  -23.6761  -20.4248    1.4373   -4.1206   -3.4000  -10.2103   17.6392    4.7652
   -5.5237  -13.8593   -0.7900  -11.4529   -4.7897    4.3163    6.6114   -8.2667   -7.3939    0.8048
  -13.6430   41.3011  -57.6703   -5.3728  -36.9065   22.0232  -19.7401  -13.6868   -0.3352   22.4518
  -22.9507   -9.6245   45.4216   17.7883    9.1627  -20.6874  -10.4198   -1.9041   -3.8392    5.2446
   18.5052  -17.5875  -26.6356   14.9212   35.1015  -52.5402   32.9400   32.1445   26.7129  -40.7113
  -14.1115   66.5110  -29.5518  -22.2936 -231.8339  296.2252  218.7679  456.2396
   15.9518 -115.7887   42.9075   -7.3454  -16.9821  -27.8672   16.0517   12.7002  -14.8469  -19.8792
    5.9702   27.1893    3.2659   30.3962  -15.2031  -18.3815  -16.7274   13.2165    2.8082   -2.3450
    6.6915  -23.0625   98.4767   36.9289   24.4940  -18.1441   15.1340   16.3260    1.6966  -17.0785
  -11.6963  -21.0701  -29.7451   -3.2392   -5.8157    3.7021   18.7100   -0.1065   19.2388  -21.2117
   -6.3127   15.5938   45.6910   -6.5939  -77.5481   86.8662  -55.5757  -61.5581  -46.6276   61.8242
   49.4048  -50.4213   58.3758   40.8155  307.0114 -493.8647 -321.0085 -450.9103  882.6249
    1.1649   17.5578  -18.6857  -44.3323  -35.3406  -54.1729   68.8922   35.1645   26.9663  -21.9000
   16.8808   17.0105   -2.9054    7.5105   -9.2927    2.2067  -14.1925   -6.6144    2.5093  -11.2307
   -9.0516   11.5223    2.3553    7.8681   -2.6461    3.8389  -15.4246  -12.6600    0.1583   17.5997
   25.8893    0.5741  -66.4038  -33.7673    2.3569   32.7605    2.1691   17.7148    9.0617    2.2663
    9.5152   -2.7113  -43.7081   24.8932    3.0745   45.6031  -36.1761  -19.5938  -28.1418   25.6394
   24.1465   21.2021  -27.9225    6.5683   20.4452  -47.3182 -428.8083  -74.0341  128.0773 1264.8751
  -13.9964    8.8674  -42.5436  -22.7462   -9.2516    7.4707   -0.6992   -0.4089    8.8374    6.6790
   -7.7516   -5.1388  -11.3825    1.4264    0.7673   -2.1303    2.8506  -12.1189   -4.5563    0.3685
   -1.5089   -1.4397    4.6647   21.1631   -9.7325    6.0344   -6.4625    3.4965    1.2872   -1.3322
  -21.3654  -14.0770   17.7198   11.4141    5.9484  -11.3586    6.1221    0.9736    7.1451   27.8271
  -15.4530    3.8043  -56.7358   26.7689  -51.7292  -37.9631   36.2780   57.0185    7.8564  -31.6785
   -9.6252   60.5117  -17.3109   38.9249   15.3026  -65.6085   39.3192  -62.0598   67.9552  121.6108
  439.4166
   -5.2168  -52.1611   73.0626    1.1281   -4.6546  -15.7517    2.3434   -1.6638   -9.5978  -16.2754
    4.3151    2.2611   13.6992   12.2358  -23.3407  -11.6224  -10.1757   23.6973   -0.2167   -1.1601
   -6.4499   33.8117   17.8154   -3.3008  -13.3335    5.2921   -3.5170   -8.7394   -4.6728    6.8357
  -11.6123  -19.6314   -8.4518    2.9491   -4.8585   -7.1949    0.6147    1.3568    6.4798  -77.9454
   44.2597   -7.8664   95.2150  -41.7982   76.2117   94.5067  -65.1144  -96.7614  -26.8108   39.4879
   24.3335  -87.1722   47.0228  -73.0187  -62.5937   86.9393  -63.4647   61.6683 -135.2892 -190.3665
 -417.5817  855.8030
   11.1535  -19.1421  -30.0208   25.1997  -32.2929   37.8836  -36.0637  -12.3316  -37.4530    6.6846
    8.2877   -8.9800   -6.5229    6.6698  -17.0531  -13.6965    1.1253    9.2081    6.9802    3.5285
   11.8617  -63.0611   58.8827  -63.3138   87.3065  -28.1821   48.1336   -8.0866   -6.5145   18.8369
    6.4200   -8.3563  -27.8046   -5.8098   -7.7199    6.6962   10.7532    1.3181    7.0846   20.1273
   -3.0635   63.7432   69.8757  -34.7055  -30.2684  -11.1707   60.6843  -39.4835  -41.0742  -22.9270
   32.9961  -33.0971   52.6731   31.4632  159.0238 -231.3349  -70.0843  -85.5192  111.8297 -751.2249
   43.7604  -81.3194 1178.7042
  -19.2913  -37.7382  -12.4825  -21.0756   24.8353   37.3160    3.4600    0.4084  -21.8546   -0.8175
    1.8604  -16.2665  -17.7254    6.1164    1.6656   -0.7419    3.3185   -4.6192    1.8255   -3.0159
   -4.9607  -13.1942   32.7175   20.1741    1.5085   -4.7324   -8.2920    1.4860    2.0567  -11.0435
  -10.9382   -3.3086   -8.0268   -6.1545   -7.4838    6.4153   -1.4286   11.4675    7.6531  -25.1616
  -21.3435    3.3775   95.9464  -13.4765   41.4567    5.1742   -4.7332  -16.7687   -3.9021   29.2151
   28.2660  -73.6145   26.7878  -42.4205  -65.9122   88.3749    4.6744    8.6305  -54.3433 -151.0867
 -177.9784  263.5993  -39.9535  478.9127
    4.4780  -18.0300   28.8247   11.9388  -24.7774  -82.6741    3.5579   -0.0857   35.5399  -10.6163
   -6.9660   33.6767    5.5789  -19.6346   -6.4431   -1.6824   -4.2114   -0.2413   -8.0360    3.1797
    2.0097   15.5463  -33.4631    0.9262  -26.9065   11.6818   -0.6370    1.5874   -3.6228    3.6804
   -2.8052    4.6171   38.3471   17.4354   12.2554  -19.2906   -4.8856  -29.4010  -19.7370   61.1651
   41.4313    4.4513 -169.5870   27.4771  -77.7116  -23.3319   -0.5110   25.3566  -13.1577  -36.8082
  -29.0732  118.4698  -45.4667   57.4341   96.5804 -196.4154    3.3027  -50.3972   85.4239  245.3127
  261.0891 -434.6865   58.6341 -452.0138  894.9331
   -4.4924    7.4623 -530.6412   90.8343  -42.9398   12.5737  -83.5531  -27.3210  -14.9046  -21.4565
    9.9575   46.4480   38.3522   29.6941  -67.5821  -61.5564  -25.0861   73.6587    5.2847   14.8543
   35.0349  -25.0495   39.1838  -11.3030   33.1634   -0.0787   38.1340   -2.6987   -7.1920    0.7875
  -14.1785   -1.1909   54.4601    8.6180   -7.3877   -4.0931   -2.2481  -16.6227  -21.5210  -58.1920
   54.8008  114.8568  -31.3075  -48.7701   51.9943   55.2688  -83.1094  -46.4302  -21.4731   27.3825
   68.3010   -7.7522   38.0078   12.3066   49.0652  -40.5718   18.6775  -54.4497   77.0156  -32.5002
 -160.3213  246.8659 -346.8316    3.8867  -57.9509 1523.7306
  -17.3128   21.8622   60.5991   13.6908  -21.4549  -40.8965   -7.0957    2.1026   12.2546  -11.8360
    6.9843   19.2547    2.1815   -7.6848  -18.6663   -4.4227   -6.6069    6.6411   -5.5114   -0.4069
   -6.1580  -12.4478  -23.6796  -27.4433   -2.8534    0.9953    9.4673   -7.3750    1.1315   10.5381
   -3.4608   18.1036   21.5454   -4.0038    7.6714    0.7932  -15.1926  -13.9449  -11.9474    6.1593
   24.4382  -16.3406  -46.3269  -14.3313   -2.2387   45.8826  -24.5914  -32.5949  -14.1509    6.1007
    7.4391   -7.0214   -0.6275  -25.3077   27.4755  -84.6441  -67.1458  -27.0770   20.6673   90.6239
  -83.9060  118.0910  -20.0304 -166.3029  227.5643  147.4185  415.1894
    8.0107  -78.4370 -124.0362  -14.0395   32.0876   37.2593   14.7844   -0.9667  -25.6976    7.1987
   -5.0411  -10.0823  -29.2342  -16.3672   29.4062    6.4782    9.7295  -21.4333    7.5718   -5.1843
    7.8960  -41.5312   46.3372   45.5423   24.2216  -15.5550   -2.0992   10.9866   -4.0783  -21.7102
   16.2600    1.6216    0.9436   -3.6055  -11.9070   12.8080    2.7895    3.8362   -5.7080    2.8212
  -43.6291   18.8264  101.5652    4.6583   25.1290  -41.5339   50.4249   54.0620   -5.8617   12.1362
   20.0649  -31.9825    4.9982   10.0129  -69.3424  104.6321   71.1679    2.4340  -30.7606 -139.3808
  116.5271 -203.4748   40.8274  242.2830 -381.1847 -194.6780 -374.5731  784.9790
    4.1338  -10.3493  -36.1200  -40.0724  -18.0896  -39.9295   36.9675   27.0955   34.9822    5.8566
   -3.6306   10.3188    1.9656    7.4025    1.9114   -7.9889   -2.4378   -5.2580  -12.6156  -15.7918
  -18.3869  -28.0705   31.6586  -34.1914    5.8735   16.6590   14.2328    0.9473  -10.4446    9.5163
   34.6470    8.1130  -38.6911  -20.9045   -0.9531   32.6652    6.6880    9.6660   -1.7397   19.3215
  -21.7595   61.3670  -88.2584   41.2550  -78.6854  -79.3244  108.1431   23.8684   56.0493  -67.8522
  -16.6681  111.6920  -63.4551   53.7298 -121.7757  191.1760  -79.7189   56.7033  -90.0713 -102.2695
   20.1642  -37.0854  254.4537   80.3895 -139.8286 -407.2717  -86.9439  156.4388 1228.7404
  -19.0263   30.4191   26.8419    9.5123  -15.5194  -28.5596   -6.2090   -1.3104    5.3057   -8.6615
    7.8050   23.3455  -13.2942   -9.2038  -16.7130   -2.5032   -0.4914   -8.4523    0.4551   -2.1668
    4.6557  -22.1377   -5.4637  -23.7405    6.6594   -2.3316   10.6359   -9.5123   -6.6076   15.5039
    0.6772   11.7007   36.4603    0.3046    5.8613    0.7626  -12.6080   -7.6624  -12.0876   16.3623
    5.7171   18.1795   14.1017   14.2446  -27.6823  -13.3579  -30.5744   18.1223   20.8086   15.8172
   -9.7900   -9.9294  -18.0257  -15.6505 -230.2064  318.4875 -195.7097  -83.5875  102.4911   35.9461
  -18.7634    3.4912  -64.2800    6.0143  -57.9961   29.9440  -68.5519   75.7816   50.6971  461.4891
    9.5015  -90.3656  -27.9509   -9.9058   43.0404    0.5021   17.3943   -2.5864  -11.1370    4.0415
   -9.9513  -19.9409   -4.1430  -19.0506   17.2495    5.1856   -0.4591   -2.9178   -3.4068   -1.7089
  -12.8502   -0.1941   -2.9051   53.7638  -19.4953   -0.8504  -20.5024   13.8657   12.1617  -28.1054
   -0.0292   12.6219  -12.3007   -0.0569   -4.9746    4.8628   -0.8020   -4.6100   -1.3379   31.8284
   -6.7870  -54.3254  -41.5065   -8.8902   32.7704   -6.3755   56.1121  -18.9046  -24.9896   12.8377
   45.2081   38.8613   14.5818    9.5944  313.5736 -540.5171  342.7374  110.6642 -204.2456  -65.9773
   10.9448  -33.7682   93.6889  -45.2946   91.6662  -57.2731   68.4320 -149.3503  -99.9031 -476.8849
  946.2706
   -0.8599  -42.0306  -25.0431   30.0569    3.3973   57.0176  -14.9995  -15.6964  -57.7068  -15.5851
   23.3464   -9.5608  -26.3975    7.0980  -62.5792   -9.9125  -11.2671   13.2855   30.9916   11.4595
   35.4263   16.3773   51.8002    4.9890   23.8248  -28.0587  -23.7396  -22.8425   -9.2372    6.6024
   -9.6237  -24.0282  -37.0838   -3.3393   -8.0197    0.6158   10.4859   27.4572   24.3376   -8.7431
   29.2509   47.7453  179.7721  -44.1993   88.9858   10.2614  -97.2848  -37.2657  -18.2154   57.0825
   25.4607 -137.2110   48.7481  -68.7098  -86.9337  154.9772 -407.8277  -15.8064   15.2614  242.7311
  -55.1052   97.1844 -186.5893   64.1358  -90.2013  -17.7645  -56.6407   75.2329 -717.7728  112.9008
 -180.9782 1152.8589
   -4.1214    1.1706    1.7566   -4.2111   -0.7552   -6.9407    3.1432    1.0689    2.3826   -1.9445
    0.2784    3.8040   -1.2397   -0.3869   -4.2882   -1.0252    0.0258   -1.9475   -1.5570   -0.3776
   -3.1180    0.2597   -1.2612   -0.9048   -3.0047    1.1852   -1.8994   -1.2752   -0.5605    1.9098
   -2.5768    1.2825    9.8495    1.6068    1.0000   -0.1593   -2.2362   -1.4086   -0.8024    5.1445
   -0.0169   -0.9735   -2.8719    3.1103   -3.7808    8.1845    0.8939   -1.7895   -1.1608   -0.1782
    8.8819    9.1873   -2.8245   -4.6918  -19.2602    9.8094    2.4766   -5.3183   -6.8700   15.1591
   -6.8031   -1.0369  -13.7513   -7.3738    1.4346   -1.7837   -6.1052   -2.3540   14.2555   -7.6515
   -4.4221  -14.1852  196.6528
    0.8436  -15.2756   -1.5550    1.5083    5.3020   -3.8430   -1.7176   -3.5367   -2.4091   -1.3006
    1.0962   -2.2397   -0.4046   -1.3707   -1.3508    0.5238   -2.5932    0.8605    2.3304   -0.0435
    1.2756    2.1669    1.9607   12.7617   -2.5550    0.1198   -0.6040    2.6915    3.9951    0.3970
   -3.0251   -1.5434   -0.2227   -0.0602    0.7695   -1.5330   -0.8833   -0.5144    1.1963    1.2295
    3.5596   -4.6252    1.9097    2.5771   -0.9789   -6.3465    2.3881    1.5130    0.3670    8.8117
    1.1412    4.6655    6.8263    7.3490    8.3338  -26.4845    1.5650   -5.0819   -3.7422  -22.1056
   -0.6973   -6.6093   13.8282    0.8685   -5.6392   -0.7386   -2.7047   -4.8233  -18.5459   -5.6477
   -1.4229   16.4589   -0.9425  196.3643
    4.0545  -25.3388  -62.9186   37.6758   28.6117   50.8887  -54.5912  -18.9910  -29.5211    9.1596
  -13.3967  -19.8168  -23.6307   14.4096   -5.0574   -6.8237    2.7614   -0.1128    6.6958    4.5290
    8.0671  -23.4571    2.2349   44.1563   -4.5984    1.0386   -5.4271   37.0521   18.6120  -56.1110
   27.8823    5.3677   37.2418    2.0490   -1.2904   -3.7750  -13.4827  -21.8801  -35.9493  -34.5176
  -37.6187   -0.1382   50.5542   -8.6860    6.7054  123.4159   46.9051  -47.2887 -115.3586  -22.3735
   74.5245  -38.9464   30.0805   13.5617   22.2304   -6.9463 -353.4471  -16.7295    4.4106   20.7362
  -23.8144   34.3500   88.1767    5.6829  -14.3181   23.0388   27.2531  -22.1949   68.4833   -6.8642
    1.4028   33.8208   -1.9144   -0.1787  388.3556
   -4.0437  -20.9138   12.2883   -5.2134    5.0110   -3.9390   -1.5480   -3.3873    1.0743   -5.3232
   -0.2661    2.3803    1.0027    8.3695   -6.7567   -0.0485   -2.7269    2.2339    2.1032    1.3215
   -3.0623    9.3256   16.8153   15.1656   -8.6382    3.5452   -3.1605    6.4705    7.9983   -2.5033
  -14.0509   -4.5497    8.1160    3.4166    1.6802   -8.7792   -0.9540   -1.1596    5.9710  -14.8073
   -5.1081   14.6877    7.1067   -0.0677  -17.7960   28.9887   -8.3829   -7.7253  -11.3895    4.5107
    4.7161    4.0320    9.4915    4.6883   13.4171  -32.8584    0.2291  -71.6926   97.3245  -52.1453
  -10.0164    4.4079   32.3658    3.7123  -10.9555    2.1289  -12.3203   15.2078  -12.9464   28.6173
  -56.8091  -19.0001   -4.4533    0.8538  -12.9391  218.5885
   -0.6016   11.1013  -30.8136   -4.1524   -1.8230   12.5270   -3.5990   -4.1418    1.6228    3.8463
   -1.1855  -12.2846    1.4617   -3.7157   -0.9355   -1.2069    0.5081   -2.0927    0.7565   -2.5968
    0.8858    3.4541  -15.9444    4.8277    3.6744    5.9527    1.6578   -2.9153    1.9236    8.1803
    0.5998   -7.9539   -5.7255   -2.8693    0.6970    4.4836    0.5691    2.2937   -0.8378   10.4070
   10.3173  -24.3614    0.2097    0.3878   26.0158  -44.4381   15.3804   20.5085   29.4780  -13.6348
   -9.5620    4.0586    1.0573   -6.8214  -33.3088   37.7574  -10.2629   94.2631 -165.9903   77.4370
    3.4825  -17.3685  -52.4128  -12.8053   11.3856   -2.7796    9.2089  -20.3712   21.3011  -59.2898
   91.0675   32.0040    1.6994   -6.4017   25.4644  -39.0199  256.3076
    1.3149  -23.7240    2.1781    2.9301   14.6485   -4.8380    0.1698   -0.2493   -3.7252   -5.8463
    4.0816   -2.7900   -5.3452   10.4623    1.5607    1.0516   -6.9697   -2.3314   -0.3046   -3.6821
   -3.2941    3.3161    7.5317   20.7906   -8.6928    0.8207   -7.8436    8.4611    7.9739   -8.3463
    1.9052   -1.4148   -4.5679    0.2268    4.4624   -3.9273    0.2352    1.2603   -0.6380  -15.4560
   -5.6858   24.3898    2.4401    1.0166  -18.7199   27.6866   -1.2202   -6.2720  -23.7569   11.8852
    9.3910    4.6093    4.2798   22.5175   30.4096  -47.0966   24.3687  -54.4355   86.2963  -98.4377
  -21.3137   35.3227   28.7832   24.6656  -33.8206    5.7261   -5.1426    8.0629  -21.9287   23.2118
  -38.1274  -43.8544   -0.8031    0.2020  -23.1648   26.1041  -44.7413  224.6688
   -5.1740    4.3602   15.0174   -8.5916  -18.6066   -7.7882    6.7363    0.5451    9.7699   -8.1096
    0.5007    5.3393    2.5472    5.5533   -4.4367   -3.9270   -0.8376    0.8391   -1.4464   -4.4580
   -5.9380    4.3146   11.2453  -13.1166    9.4697    7.7702   11.0726   -7.7094    0.8770   15.5766
   -5.8594   -6.1208   -0.1651    0.2304    2.9829   -5.2288    1.7578   -2.0316    1.5977   -8.3838
   16.9548   12.0308    8.1729   -9.2888   -1.6968   28.9990   -9.9662  -27.1882  -21.4696   -3.7145
    9.2263   -8.7444    7.0898  -10.8621   -6.5908    1.9102  -21.4811   -5.9227   -5.5450  -34.2059
  -58.5482   82.2055   44.2347    1.9905  -12.5368    7.6365   40.4033  -65.2644   15.3674   -2.9882
   -1.7073   -2.2934   -1.9266   -0.3253    8.6201   -0.7865   -6.9891    5.8398  214.0630
   -1.8184   -7.6178  -19.0318    2.1097   16.2572    9.2446   -8.4847  -11.0606   -1.5410    4.0819
  -13.5710   -6.2907   -3.8212   -1.3691   -3.1735   -4.3628    0.2718    0.2443   -0.4376    1.5205
    3.4814    9.9290  -11.6275   26.6868  -18.2703   10.9561  -10.2621    8.4323    7.1334  -15.3349
   -4.9795   -6.8816    2.2346    6.7144   -1.3209   -4.3345    5.2794   -1.2291    0.1207   -2.4367
  -12.9698  -11.3235    8.0989   13.4919    8.6193  -34.8810   15.2887   32.0483   19.9395  -10.7165
  -13.7602    6.1548   -7.3265    1.2616    0.6745   -8.6744   42.2156   -0.2253   -4.7041   55.3908
   80.1482 -137.8241  -72.2334  -11.5337   17.5042  -12.9612  -62.3083   96.7837  -21.2718   -0.8741
    3.6906   -1.6028    0.5797   -1.5596  -15.8578   -4.1613    6.2976   -8.2671  -31.3804  244.1578
   -0.5249    2.6746  -40.9674    7.1474   22.8120    7.6357   -9.8157   -6.1035   -1.7716    2.6148
   -1.7948  -10.4486   -8.2109    5.7563    1.5950   -1.8903   -5.2893   -5.8316   -1.6967   -4.6000
    1.7329    3.1425  -21.9765   26.0929  -15.2078    6.5271  -11.8119    9.3064    7.6806  -11.5756
    4.9591   -4.0286    1.6922    3.2123    6.2223   -2.2586    1.4722    1.4256   -7.0977    4.1427
   -9.9449   -0.6358   -7.5514   10.6879   -3.9767  -27.3138   20.1191   31.6252    7.9967   -8.0468
   -5.5165   11.0116   -9.2369   20.5504  -14.3451   19.0498   30.4632   20.9572  -31.9172   18.7005
   52.3540  -85.8203  -64.9459  -19.2965   31.6417   19.4445  -29.8089   46.4113  -32.9273   -0.1913
    4.8429  -11.1433    1.4215   -1.9817  -11.2656   -3.4734    5.0255  -14.8685  -19.9653   31.7323
  214.6710
   -2.9236  -10.0548  -27.6964   -1.9574   21.6449   10.9970   -2.7961   -5.9399   -7.3743    5.2567
    0.2468   -8.2231   -6.7529   -8.5799   12.1319    7.0422    2.8092   -7.4281   -0.5221    0.4164
   -1.8169   -7.9864   -8.6064   16.2219   -6.5709   -6.0844   -9.2981    7.3991    7.4198   -9.4914
   -5.3230    7.9228   13.4523    2.2797    0.7013   -2.5935   -6.7755    0.0823   -3.6053    4.9959
  -11.9775  -10.7268   15.8763   -3.5929   12.1470  -10.2150    3.9774   18.9387   -5.8887    9.3337
    8.6457   -4.0033    0.1695    4.4974    0.0610   -9.0019   31.1355   -4.8119    6.0079  -23.5422
   34.7714  -57.0652   -5.8185    8.4659  -12.4823   -8.3095  -58.0455   79.6973  -53.2354   -9.1094
    6.8547   34.7841   -3.0419    1.7153  -12.0768   -0.0658   -0.0196   -1.0288  -13.6300   26.1353
   15.2710  215.2885
    0.3144   -1.4096   33.9527    3.6018  -18.8544  -19.4947    3.6302    6.8914    4.0207   -4.2447
    8.1517   10.7579    0.2866    1.2264  -10.8342   -3.8063   -8.1424    5.3260    1.9530   -2.8144
    3.5287   -7.0767    7.0517  -17.0075    7.2011   -5.7305    7.3863   -5.8888   -7.6035   10.3290
   11.0590   -0.9701  -12.7551  -10.0145    0.5364   11.5787   -0.6945    2.3379    1.3174   10.2424
    3.0816    5.0390  -38.3309    2.0434  -22.2716    1.9063   -5.3376  -13.9050   18.6976    1.2665
   -4.7090    3.1383   -4.4255    4.2378  -10.0893   10.5812  -54.6356    3.7617  -10.8664   28.6601
  -54.9219   88.3566   10.3800  -19.8820   21.1447    9.5599   78.2007 -129.7123   80.4782    3.3484
  -19.9297  -54.1942    1.7024   -5.3606   19.3466   -0.7086   -0.1664   -1.0073   25.4334  -38.3737
  -25.7732  -32.1842  245.4456
    3.1795  -15.6195  -46.6265    3.2105   22.0110   13.1711   -2.1519   -2.0660   -7.7132    1.0519
   -3.1736   -5.9275  -10.4148    7.1151    4.2720   -3.9683   -0.8249   -7.8333   -4.1459   -4.8420
   -1.2702   -3.7627   -5.3135   17.0931   -4.8946    0.7929  -10.4485    7.1934    1.0316  -16.4145
    7.6058   -4.0889    6.3761    6.6248    1.8719   -1.6989    4.0517   -0.1411   -8.6942   -1.6188
   -6.3977    6.3446   29.5199   -4.9330   10.6184   17.8115    7.2384    3.4866  -25.4598   -2.3604
   23.3519  -13.9648   -0.2943    1.0178   15.9663  -23.6825   42.2480    0.4451   -2.1222  -44.4395
   15.1504  -26.8694  -16.2468   31.4390  -43.8862   29.2869  -52.2376   83.5838  -67.1726  -23.0951
   40.4069   18.7544   -2.3675    4.3465  -11.5514    3.6667   -2.4991    0.1341  -15.4409   23.3718
    8.0017   21.3460  -32.7575  216.6124
   -2.0749  -14.6389  -14.2041   -0.6533    9.7636    6.6090    3.6410    0.9407   -4.9207    1.8106
    1.6960   -3.1567   -5.9606   -5.4418   -2.6456   -1.8216    0.2169   -3.0635   -1.3777   -1.8152
   -0.4424   -6.5238    4.0659    5.7197   -3.0143   -2.9380   -6.3413   -2.1478   -2.6301   -3.6888
   -1.5494    5.6506    5.5879    2.2398    0.9314    2.0380   -0.8153    2.6937   -1.9500   20.1601
    4.9249  -12.7135    1.5411   -4.8806   13.1024   -7.7217    5.6872    0.4507   -0.7554    6.0008
   15.6406   -3.1769   -1.4845  -10.4029    4.9974  -23.6537    1.1867   36.4696  -67.9815   22.8426
   -9.1108    9.6570   -2.1931    1.0747   -5.2133  -12.0392   -8.5707   -3.4596  -21.5214  -70.7287
   97.5797   34.5126   -3.6914    1.2120   14.3214  -19.6295   32.1268  -19.1140   -1.9874    3.5391
    0.5810    0.7919   -5.8597    2.4654  218.7237
   -0.8654    8.6733   21.9055    7.1223  -13.6598  -26.2503   -1.7829    1.6449    3.4580   -5.2372
    2.5806   13.8228   -0.5498   -2.5862    1.8372    2.6402   -2.3510    0.2034    1.2562    0.6014
    0.2946  -11.2758   -4.5560   -9.0986    7.4925   -4.2373   11.2234    2.2128    0.2929    3.8251
    8.9099    5.0127    6.4898   -5.3049   -0.0173    2.8593   -6.1789   -8.3348   -5.1474  -11.5622
   -9.2436   12.7847   -4.1375    7.4080  -20.6541   28.9922   -4.3915   -1.6402  -10.7113    8.5662
   -4.5519   -0.3749    0.6093    8.5077  -21.4330   25.0757   -8.4755  -72.6441  108.9521  -35.7061
    8.5642  -19.2406    4.2032  -11.1652    3.9176   27.0881    1.1340   -4.5504   38.3767   97.2685
 -172.6874  -61.8236    0.4820   -5.8432  -19.8824   30.9659  -54.0374   31.0949    4.6887   -6.4304
   -2.0856   -7.4211    6.6209   -5.1775  -38.4281  259.2051
   -0.8170   15.6141    7.5273    5.8056   -8.5190  -15.2727   -0.4192    2.5158    2.7519   -6.0690
    1.8245    8.5202   -4.5805    6.6838   -1.5398   -1.8446   -3.7894   -3.7824   -3.6705   -3.0097
   -2.8080   -2.5230  -11.4188  -10.2600    2.0974    0.3976    0.2862   -0.0020   -1.4248    0.1142
   13.3242   -1.9337    3.3222   -0.8083    2.8580    1.8807   -0.9495   -4.1200   -7.4640   -7.8941
   -7.3230   25.0966   -8.3527    4.6115  -18.3295   30.0120   -1.9150    0.3875  -14.9014   -7.2464
    2.9024    5.7973   -9.1408    9.3609  -25.2142   37.9916   19.9019  -33.0304   53.1441  -48.8099
   -4.0827    4.6402   -1.6937  -16.1764   19.0406   18.0017   14.4886  -20.0709   12.2361   55.9012
  -91.4947  -68.8987   -0.1388   -0.2389  -24.7711   19.7434  -33.2996   16.9434    5.5662   -7.8597
   -7.4844   -7.3526   10.0157  -13.5339  -26.9681   43.9704  225.2016


      MOLECULAR POINT GROUP   :   C1  


          ALPHA EIGENVALUES  
 -43.22250 -42.08876 -38.39526 -38.03387 -35.52031 -35.06820 -33.31074 -33.18784
 -32.97707 -30.71266 -26.76048 -26.25263 -25.14464 -24.18783 -22.87068 -22.13096
 -21.67742 -21.42609 -21.21768 -20.93489 -20.61437 -20.09842 -19.79565 -19.37082
 -19.25890 -18.83694 -18.79528 -18.46247 -18.39562 -18.31249 -17.77428 -17.56736
 -17.45554 -16.94834 -16.72678 -16.55055 -16.29827 -16.16367 -16.11970 -15.48406
 -15.09959 -14.42127 -14.07064 -13.34963 -13.04994 -12.83825  -5.59949  -4.49925
  -4.41309  -4.22446  -3.60447  -2.56175  -2.52836  -2.29227  -2.03878  -1.96000
  -1.56393  -1.39505  -0.51896  -0.48306  -0.02735   0.02363   0.16851   0.31478
   0.60966   0.78848   0.89660   0.99007   1.04959   1.37934   1.51021   1.72951
   1.93861   1.97666   2.00623   2.05190   2.16711   2.23435   2.83613  51.63947
  52.47965  54.42667


           BETA EIGENVALUES 
 -43.21610 -42.15283 -38.42004 -38.06036 -35.68131 -35.23034 -33.53336 -33.38923
 -33.02191 -30.71264 -26.75224 -26.25772 -25.09586 -24.14728 -22.84905 -22.15180
 -21.72210 -21.48213 -21.27922 -20.93296 -20.55931 -20.10865 -19.80051 -19.37312
 -19.24409 -18.93002 -18.80915 -18.58620 -18.50495 -18.27768 -17.81270 -17.58883
 -17.46661 -17.00434 -16.82624 -16.71943 -16.47117 -16.27220 -16.18492 -15.39147
 -15.08845 -14.39475 -13.82217 -12.52590 -12.25143  -5.21839  -4.99807  -4.48066
  -4.30268  -4.16097  -3.46322  -2.60542  -2.52300  -2.35070  -2.15339  -1.94581
  -1.55004  -1.40629  -0.74342  -0.48425  -0.11673   0.02862   0.12019   0.31402
   0.65226   0.76125   0.89972   0.98826   1.04572   1.37672   1.51180   1.73387
   1.88860   1.94116   1.99526   2.04470   2.10087   2.22641   3.00729  51.66088
  52.96047  55.07706


              NET ATOMIC CHARGES AND DIPOLE CONTRIBUTIONS

  ATOM NO.   TYPE          CHARGE      No. of ELECS.   s-Pop       p-Pop       d-Pop       
    1         Mn           0.129132        6.8709     0.97222     0.34281     5.55584
    2          O          -0.275554        6.2756     1.87760     4.39795
    3          H           0.308621        0.6914     0.69138
    4          H           0.329257        0.6707     0.67074
    5          O          -0.647824        6.6478     1.82219     4.82564
    6          H           0.343743        0.6563     0.65626
    7          H           0.361084        0.6389     0.63892
    8          O          -0.283066        6.2831     1.87286     4.41020
    9          H           0.317299        0.6827     0.68270
   10          H           0.300142        0.6999     0.69986
   11          O          -0.626084        6.6261     1.82184     4.80425
   12          H           0.353045        0.6470     0.64696
   13          H           0.334977        0.6650     0.66502
   14          N          -0.424901        5.4249     1.61710     3.80780
   15          C           0.232961        3.7670     1.08262     2.68442
   16          C           0.233559        3.7664     1.08151     2.68494
   17          N          -0.235126        5.2351     1.83927     3.39586
   18          N          -0.240041        5.2400     1.83954     3.40051
   19          C          -0.038016        4.0380     1.09772     2.94029
   20          C          -0.202871        4.2029     1.09407     3.10880
   21          C           0.070516        3.9295     1.10696     2.82252
   22          N          -0.199187        5.1992     1.54049     3.65869
   23          C           0.065562        3.9344     1.10480     2.82964
   24          C          -0.200644        4.2006     1.09500     3.10565
   25          H           0.194405        0.8056     0.80559
   26          H           0.200552        0.7994     0.79945
   27          H           0.203179        0.7968     0.79682
   28          H           0.194547        0.8055     0.80545
   29          H           0.200733        0.7993     0.79927
 DIPOLE           X         Y         Z       TOTAL
 POINT-CHG.     0.458     0.062    -9.158     9.170
 HYBRID         0.048    -0.287     0.286     0.408
 SUM            0.506    -0.225    -8.872     8.890


          ATOMIC ORBITAL ELECTRON POPULATIONS

     Atom    s        px        py        pz      x^2-y^2     xz        z^2       yz        xy
    1 Mn   0.97222   0.05346   0.12265   0.16670   0.72915   0.99397   0.80556   1.18191   1.84525
    2  O   1.87760   1.37006   1.67000   1.35790
    3  H   0.69138
    4  H   0.67074
    5  O   1.82219   1.61443   1.77385   1.43736
    6  H   0.65626
    7  H   0.63892
    8  O   1.87286   1.37029   1.68519   1.35473
    9  H   0.68270
   10  H   0.69986
   11  O   1.82184   1.64414   1.73228   1.42782
   12  H   0.64696
   13  H   0.66502
   14  N   1.61710   1.03358   1.44551   1.32871
   15  C   1.08262   0.87506   0.90678   0.90258
   16  C   1.08151   0.84754   0.93960   0.89779
   17  N   1.83927   1.15118   1.13515   1.10952
   18  N   1.83954   1.13277   1.15177   1.11597
   19  C   1.09772   0.90134   0.94042   1.09854
   20  C   1.09407   1.04073   1.06841   0.99966
   21  C   1.10696   0.93454   0.92218   0.96580
   22  N   1.54049   1.18191   1.12682   1.34996
   23  C   1.10480   0.93713   0.92688   0.96563
   24  C   1.09500   1.03962   1.06764   0.99839
   25  H   0.80559
   26  H   0.79945
   27  H   0.79682
   28  H   0.80545
   29  H   0.79927


                    (SZ)    =    0.500000
                    (S**2)  =    1.763341


          ATOMIC ORBITAL SPIN POPULATIONS

    Atom   Total    s     px     py     pz   x^2-y^2  xz     z^2    yz     xy
         Atomic
    1 Mn  1.1700 -0.089  0.002  0.001  0.002 -0.368  0.873 -0.164  0.778  0.136
    2  O -0.0361 -0.004 -0.003 -0.003 -0.026
    3  H  0.0052  0.005
    4  H  0.0052  0.005
    5  O -0.0562 -0.016  0.006 -0.043 -0.003
    6  H -0.0059 -0.006
    7  H -0.0123 -0.012
    8  O -0.0357 -0.006 -0.003 -0.006 -0.021
    9  H  0.0030  0.003
   10  H  0.0023  0.002
   11  O -0.0606 -0.015  0.000 -0.041 -0.004
   12  H -0.0071 -0.007
   13  H -0.0071 -0.007
   14  N -0.0001  0.005 -0.003  0.005 -0.007
   15  C  0.0196  0.005  0.006  0.003  0.006
   16  C  0.0306  0.007  0.011  0.003  0.010
   17  N -0.0175 -0.000  0.003 -0.002 -0.018
   18  N -0.0113 -0.000  0.005 -0.003 -0.013
   19  C  0.0674  0.002  0.042  0.020  0.003
   20  C -0.0601 -0.002 -0.037 -0.017 -0.004
   21  C  0.0746  0.003  0.044  0.023  0.004
   22  N -0.0830 -0.006 -0.042 -0.024 -0.010
   23  C  0.0782  0.002  0.044  0.028  0.004
   24  C -0.0606 -0.002 -0.037 -0.017 -0.004
   25  H -0.0021 -0.002
   26  H  0.0018  0.002
   27  H -0.0022 -0.002
   28  H -0.0022 -0.002
   29  H  0.0020  0.002

 **********************
 *                    *
 * JOB ENDED NORMALLY *
 *                    *
 **********************



 TOTAL JOB TIME:             2.00 SECONDS

 == MOPAC DONE ==
