 *******************************************************************************
 ** Site#: 26130        For non-commercial use only     Version 16.299L 64BITS**
 *******************************************************************************
 ** Cite this program as: MOPAC2016, Version: 16.299L, James J. P. Stewart,   **
 ** Stewart Computational Chemistry, web: HTTP://OpenMOPAC.net. Days left: 350**
 *******************************************************************************
 **                                                                           **
 **                                MOPAC2016                                  **
 **                                                                           **
 *******************************************************************************

                              PM7 CALCULATION RESULTS


 *******************************************************************************
 *  CALCULATION DONE:                                Thu Nov 10 15:54:12 2016  *
 *  PM7        - The PM7 Hamiltonian to be used
 *  SEXTET     - SPIN STATE DEFINED AS A SEXTET
 *  UHF        - UNRESTRICTED HARTREE-FOCK CALCULATION
 *
 *
 *
 *                 CHARGE ON SYSTEM =    +1
 *
 *
 *
 *  XYZ        - CARTESIAN COORDINATE SYSTEM TO BE USED
 *  EF         - USE EF ROUTINE FOR MINIMUM SEARCH
 *  T=         - A TIME OF 172800.0 SECONDS REQUESTED
 *  DUMP=N     - RESTART FILE WRITTEN EVERY  7200.000 SECONDS
 *  HESSIAN    - WRITE OUT HESSIAN FROM GEOMERY OPTIMIZATION
 *******************************************************************************
 EF PM7 XYZ HESSIAN SEXTET UHF CHARGE=1
 1001_M_9_6

   ATOM   CHEMICAL          X               Y               Z
  NUMBER   SYMBOL      (ANGSTROMS)     (ANGSTROMS)     (ANGSTROMS)
 
     1      Mn          0.00000000  *   0.00000000  *   0.00000000  *
     2       O          0.00000000  *   2.18000000  *   0.00000000  *
     3       H          0.68502700  *   2.78619800  *  -0.37929400  *
     4       H         -0.68502700  *   2.78618400  *   0.37929400  *
     5       O          2.18000000  *   0.00000000  *   0.00000000  *
     6       H          2.78619800  *   0.02732700  *  -0.78254700  *
     7       H          2.78618400  *  -0.02732700  *   0.78254700  *
     8       O          0.00000000  *  -2.18000000  *   0.00000000  *
     9       H          0.70981700  *  -2.78619800  *  -0.33058500  *
    10       H         -0.70981700  *  -2.78618400  *   0.33058500  *
    11       O         -2.18000000  *   0.00000000  *   0.00000000  *
    12       H         -2.78619800  *   0.02732700  *   0.78254700  *
    13       H         -2.78618400  *  -0.02732700  *  -0.78254700  *
    14       N          0.00000000  *  -0.00000100  *   2.19000000  *
    15       C          1.17724500  *  -0.23579000  *   2.88187200  *
    16       C         -1.17724500  *   0.23578700  *   2.88195600  *
    17       N         -2.16071600  *   0.43266400  *   3.45947300  *
    18       N          2.16071000  *  -0.43283900  *   3.45928300  *
    19       C          0.00033300  *   0.00047100  *  -4.98709800  *
    20       C         -0.06680900  *   1.19914700  *  -4.28423100  *
    21       C         -0.06218200  *   1.14783600  *  -2.89934300  *
    22       N          0.00000200  *   0.00000900  *  -2.19000000  *
    23       C          0.06218500  *  -1.14781900  *  -2.89984900  *
    24       C          0.06687200  *  -1.19800400  *  -4.28476900  *
    25       H          0.00052700  *   0.00089500  *  -6.07329000  *
    26       H         -0.12101800  *   2.14974700  *  -4.80188200  *
    27       H         -0.10978800  *   2.05623500  *  -2.30568400  *
    28       H          0.10929500  *  -2.05630900  *  -2.30671300  *
    29       H          0.12071800  *  -2.14884100  *  -4.80293800  *
 


          CARTESIAN COORDINATES 

    NO.       ATOM         X         Y         Z

     1        Mn        0.0000    0.0000    0.0000
     2         O        0.0000    2.1800    0.0000
     3         H        0.6850    2.7862   -0.3793
     4         H       -0.6850    2.7862    0.3793
     5         O        2.1800    0.0000    0.0000
     6         H        2.7862    0.0273   -0.7825
     7         H        2.7862   -0.0273    0.7825
     8         O        0.0000   -2.1800    0.0000
     9         H        0.7098   -2.7862   -0.3306
    10         H       -0.7098   -2.7862    0.3306
    11         O       -2.1800    0.0000    0.0000
    12         H       -2.7862    0.0273    0.7825
    13         H       -2.7862   -0.0273   -0.7825
    14         N        0.0000   -0.0000    2.1900
    15         C        1.1772   -0.2358    2.8819
    16         C       -1.1772    0.2358    2.8820
    17         N       -2.1607    0.4327    3.4595
    18         N        2.1607   -0.4328    3.4593
    19         C        0.0003    0.0005   -4.9871
    20         C       -0.0668    1.1991   -4.2842
    21         C       -0.0622    1.1478   -2.8993
    22         N        0.0000    0.0000   -2.1900
    23         C        0.0622   -1.1478   -2.8998
    24         C        0.0669   -1.1980   -4.2848
    25         H        0.0005    0.0009   -6.0733
    26         H       -0.1210    2.1497   -4.8019
    27         H       -0.1098    2.0562   -2.3057
    28         H        0.1093   -2.0563   -2.3067
    29         H        0.1207   -2.1488   -4.8029

 General Reference for PM7:
 "Optimization of Parameters for Semiempirical Methods VI: More Modifications to the 
 NDDO Approximations and Re-optimization of Parameters", J. J. P. Stewart, J. Mol. Mod., 1:32, 19 (2013)
 http://www.springerlink.com/openurl.asp?genre=article&id=doi:10.1007/s00894-012-1667-x

           Empirical Formula: C7 H13 N4 O4 Mn  =    29 atoms



      MOLECULAR POINT GROUP   :   C1  


 SEXTET STATE CALCULATION


          UHF CALCULATION, NO. OF ALPHA ELECTRONS =   48
                           NO. OF BETA  ELECTRONS =   43

          Geometry optimization using EF

          DIAGONAL MATRIX USED AS START HESSIAN

 CYCLE:     1 TIME:   0.086 TIME LEFT:  2.00D  GRAD.:   202.185 HEAT:  105.3017
 CYCLE:     2 TIME:   0.051 TIME LEFT:  2.00D  GRAD.:   295.081 HEAT:  103.4259
 CYCLE:     3 TIME:   0.027 TIME LEFT:  2.00D  GRAD.:    97.191 HEAT:  88.86752
 CYCLE:     4 TIME:   0.023 TIME LEFT:  2.00D  GRAD.:   120.123 HEAT:  81.62400
 CYCLE:     5 TIME:   0.023 TIME LEFT:  2.00D  GRAD.:   102.926 HEAT:  73.01153
 CYCLE:     6 TIME:   0.027 TIME LEFT:  2.00D  GRAD.:   241.083 HEAT:  72.48043
 CYCLE:     7 TIME:   0.055 TIME LEFT:  2.00D  GRAD.:   357.970 HEAT:  68.18272
 CYCLE:     8 TIME:   0.027 TIME LEFT:  2.00D  GRAD.:   262.259 HEAT:  66.85120
 CYCLE:     9 TIME:   0.023 TIME LEFT:  2.00D  GRAD.:   221.791 HEAT:  60.76094
 CYCLE:    10 TIME:   0.027 TIME LEFT:  2.00D  GRAD.:   202.917 HEAT:  59.44311
 CYCLE:    11 TIME:   0.027 TIME LEFT:  2.00D  GRAD.:   191.990 HEAT:  53.38602
 CYCLE:    12 TIME:   0.027 TIME LEFT:  2.00D  GRAD.:   215.016 HEAT:  52.18680
 CYCLE:    13 TIME:   0.027 TIME LEFT:  2.00D  GRAD.:   190.979 HEAT:  49.98668
 CYCLE:    14 TIME:   0.047 TIME LEFT:  2.00D  GRAD.:   180.561 HEAT:  46.99974
 CYCLE:    15 TIME:   0.027 TIME LEFT:  2.00D  GRAD.:    64.987 HEAT:  44.07167
 CYCLE:    16 TIME:   0.047 TIME LEFT:  2.00D  GRAD.:    71.131 HEAT:  43.71021
 CYCLE:    17 TIME:   0.023 TIME LEFT:  2.00D  GRAD.:    63.430 HEAT:  42.96698
 CYCLE:    18 TIME:   0.027 TIME LEFT:  2.00D  GRAD.:    59.296 HEAT:  42.61620
 CYCLE:    19 TIME:   0.023 TIME LEFT:  2.00D  GRAD.:    54.922 HEAT:  41.82786
 CYCLE:    20 TIME:   0.023 TIME LEFT:  2.00D  GRAD.:    73.178 HEAT:  41.52088
 CYCLE:    21 TIME:   0.027 TIME LEFT:  2.00D  GRAD.:    56.113 HEAT:  40.37549
 CYCLE:    22 TIME:   0.047 TIME LEFT:  2.00D  GRAD.:    64.940 HEAT:  40.00538
 CYCLE:    23 TIME:   0.023 TIME LEFT:  2.00D  GRAD.:    49.282 HEAT:  39.60875
 CYCLE:    24 TIME:   0.027 TIME LEFT:  2.00D  GRAD.:    66.277 HEAT:  39.50215
 CYCLE:    25 TIME:   0.023 TIME LEFT:  2.00D  GRAD.:    31.218 HEAT:  38.49740
 CYCLE:    26 TIME:   0.051 TIME LEFT:  2.00D  GRAD.:    60.469 HEAT:  38.44409
 CYCLE:    27 TIME:   0.023 TIME LEFT:  2.00D  GRAD.:    23.704 HEAT:  37.58424
 CYCLE:    28 TIME:   0.027 TIME LEFT:  2.00D  GRAD.:    61.185 HEAT:  37.30333
 CYCLE:    29 TIME:   0.023 TIME LEFT:  2.00D  GRAD.:    24.853 HEAT:  35.89128
 CYCLE:    30 TIME:   0.027 TIME LEFT:  2.00D  GRAD.:    58.558 HEAT:  34.91161
 CYCLE:    31 TIME:   0.027 TIME LEFT:  2.00D  GRAD.:    58.343 HEAT:  33.28465
 CYCLE:    32 TIME:   0.023 TIME LEFT:  2.00D  GRAD.:    63.112 HEAT:  31.41072
 CYCLE:    33 TIME:   0.055 TIME LEFT:  2.00D  GRAD.:    85.985 HEAT:  30.97705
 CYCLE:    34 TIME:   0.023 TIME LEFT:  2.00D  GRAD.:    65.742 HEAT:  29.45534
 CYCLE:    35 TIME:   0.078 TIME LEFT:  2.00D  GRAD.:    33.827 HEAT:  28.75193
 CYCLE:    36 TIME:   0.023 TIME LEFT:  2.00D  GRAD.:    27.211 HEAT:  28.36452
 CYCLE:    37 TIME:   0.023 TIME LEFT:  2.00D  GRAD.:    36.985 HEAT:  28.03707
 CYCLE:    38 TIME:   0.027 TIME LEFT:  2.00D  GRAD.:    44.959 HEAT:  27.66422
 CYCLE:    39 TIME:   0.023 TIME LEFT:  2.00D  GRAD.:    49.860 HEAT:  27.64754
 CYCLE:    40 TIME:   0.027 TIME LEFT:  2.00D  GRAD.:    52.703 HEAT:  27.45704
 CYCLE:    41 TIME:   0.047 TIME LEFT:  2.00D  GRAD.:    44.162 HEAT:  27.22290
 CYCLE:    42 TIME:   0.027 TIME LEFT:  2.00D  GRAD.:    27.172 HEAT:  26.94264
 CYCLE:    43 TIME:   0.047 TIME LEFT:  2.00D  GRAD.:    35.122 HEAT:  26.92558
 CYCLE:    44 TIME:   0.027 TIME LEFT:  2.00D  GRAD.:    20.659 HEAT:  26.65434
 CYCLE:    45 TIME:   0.023 TIME LEFT:  2.00D  GRAD.:    18.091 HEAT:  26.55214
 CYCLE:    46 TIME:   0.023 TIME LEFT:  2.00D  GRAD.:    31.294 HEAT:  26.41053
 CYCLE:    47 TIME:   0.027 TIME LEFT:  2.00D  GRAD.:    15.282 HEAT:  26.11576
 CYCLE:    48 TIME:   0.094 TIME LEFT:  2.00D  GRAD.:    11.182 HEAT:  26.03527
 CYCLE:    49 TIME:   0.023 TIME LEFT:  2.00D  GRAD.:     5.201 HEAT:  25.95937
 CYCLE:    50 TIME:   0.023 TIME LEFT:  2.00D  GRAD.:     9.325 HEAT:  25.87794
 CYCLE:    51 TIME:   0.027 TIME LEFT:  2.00D  GRAD.:     6.958 HEAT:  25.74336
 CYCLE:    52 TIME:   0.023 TIME LEFT:  2.00D  GRAD.:     9.176 HEAT:  25.53519
 CYCLE:    53 TIME:   0.027 TIME LEFT:  2.00D  GRAD.:    13.074 HEAT:  25.34154
 CYCLE:    54 TIME:   0.023 TIME LEFT:  2.00D  GRAD.:    15.651 HEAT:  25.19725
 CYCLE:    55 TIME:   0.027 TIME LEFT:  2.00D  GRAD.:    15.238 HEAT:  25.11229
 CYCLE:    56 TIME:   0.020 TIME LEFT:  2.00D  GRAD.:    17.621 HEAT:  24.99466
 CYCLE:    57 TIME:   0.023 TIME LEFT:  2.00D  GRAD.:    26.174 HEAT:  24.92029
 CYCLE:    58 TIME:   0.027 TIME LEFT:  2.00D  GRAD.:    19.965 HEAT:  24.59047
 CYCLE:    59 TIME:   0.023 TIME LEFT:  2.00D  GRAD.:    41.954 HEAT:  24.46853
 CYCLE:    60 TIME:   0.027 TIME LEFT:  2.00D  GRAD.:    19.268 HEAT:  23.95304
 CYCLE:    61 TIME:   0.047 TIME LEFT:  2.00D  GRAD.:    42.898 HEAT:  23.83072
 CYCLE:    62 TIME:   0.027 TIME LEFT:  2.00D  GRAD.:    21.291 HEAT:  23.39675
 CYCLE:    63 TIME:   0.027 TIME LEFT:  2.00D  GRAD.:    30.571 HEAT:  23.14364
 CYCLE:    64 TIME:   0.020 TIME LEFT:  2.00D  GRAD.:    25.685 HEAT:  22.79619
 CYCLE:    65 TIME:   0.020 TIME LEFT:  2.00D  GRAD.:    22.981 HEAT:  22.16145
 CYCLE:    66 TIME:   0.016 TIME LEFT:  2.00D  GRAD.:    29.429 HEAT:  21.27596
 CYCLE:    67 TIME:   0.020 TIME LEFT:  2.00D  GRAD.:    30.823 HEAT:  20.24293
 CYCLE:    68 TIME:   0.039 TIME LEFT:  2.00D  GRAD.:    29.499 HEAT:  19.41453
 CYCLE:    69 TIME:   0.020 TIME LEFT:  2.00D  GRAD.:    30.611 HEAT:  18.65593
 CYCLE:    70 TIME:   0.020 TIME LEFT:  2.00D  GRAD.:    28.671 HEAT:  18.03974
 CYCLE:    71 TIME:   0.016 TIME LEFT:  2.00D  GRAD.:    27.560 HEAT:  17.46063
 CYCLE:    72 TIME:   0.020 TIME LEFT:  2.00D  GRAD.:    19.319 HEAT:  16.97104
 CYCLE:    73 TIME:   0.020 TIME LEFT:  2.00D  GRAD.:    14.930 HEAT:  16.66835
 CYCLE:    74 TIME:   0.016 TIME LEFT:  2.00D  GRAD.:    16.642 HEAT:  16.41155
 CYCLE:    75 TIME:   0.020 TIME LEFT:  2.00D  GRAD.:    17.494 HEAT:  15.99941
 CYCLE:    76 TIME:   0.020 TIME LEFT:  2.00D  GRAD.:    17.630 HEAT:  15.66295
 CYCLE:    77 TIME:   0.016 TIME LEFT:  2.00D  GRAD.:    23.983 HEAT:  15.57208
 CYCLE:    78 TIME:   0.020 TIME LEFT:  2.00D  GRAD.:    22.682 HEAT:  15.30241
 CYCLE:    79 TIME:   0.020 TIME LEFT:  2.00D  GRAD.:    23.430 HEAT:  15.15844
 CYCLE:    80 TIME:   0.016 TIME LEFT:  2.00D  GRAD.:    13.054 HEAT:  14.90733
 CYCLE:    81 TIME:   0.020 TIME LEFT:  2.00D  GRAD.:    13.152 HEAT:  14.66879
 CYCLE:    82 TIME:   0.020 TIME LEFT:  2.00D  GRAD.:    18.361 HEAT:  14.47824
 CYCLE:    83 TIME:   0.016 TIME LEFT:  2.00D  GRAD.:    14.839 HEAT:  14.37275
 CYCLE:    84 TIME:   0.020 TIME LEFT:  2.00D  GRAD.:    13.042 HEAT:  14.21966
 CYCLE:    85 TIME:   0.016 TIME LEFT:  2.00D  GRAD.:    11.730 HEAT:  14.11980
 CYCLE:    86 TIME:   0.020 TIME LEFT:  2.00D  GRAD.:     8.179 HEAT:  14.01174
 CYCLE:    87 TIME:   0.016 TIME LEFT:  2.00D  GRAD.:     9.254 HEAT:  13.83182
 CYCLE:    88 TIME:   0.023 TIME LEFT:  2.00D  GRAD.:    14.330 HEAT:  13.73958
 CYCLE:    89 TIME:   0.016 TIME LEFT:  2.00D  GRAD.:    11.880 HEAT:  13.65842
 CYCLE:    90 TIME:   0.020 TIME LEFT:  2.00D  GRAD.:     6.568 HEAT:  13.57793
 CYCLE:    91 TIME:   0.020 TIME LEFT:  2.00D  GRAD.:     7.094 HEAT:  13.53923
 CYCLE:    92 TIME:   0.020 TIME LEFT:  2.00D  GRAD.:    13.075 HEAT:  13.51398
 CYCLE:    93 TIME:   0.016 TIME LEFT:  2.00D  GRAD.:     4.432 HEAT:  13.45040
 CYCLE:    94 TIME:   0.020 TIME LEFT:  2.00D  GRAD.:     3.107 HEAT:  13.41981
 CYCLE:    95 TIME:   0.020 TIME LEFT:  2.00D  GRAD.:     4.367 HEAT:  13.38805
 CYCLE:    96 TIME:   0.016 TIME LEFT:  2.00D  GRAD.:     2.631 HEAT:  13.37199
 CYCLE:    97 TIME:   0.020 TIME LEFT:  2.00D  GRAD.:     2.489 HEAT:  13.36138
 CYCLE:    98 TIME:   0.020 TIME LEFT:  2.00D  GRAD.:     2.008 HEAT:  13.35114
 CYCLE:    99 TIME:   0.020 TIME LEFT:  2.00D  GRAD.:     1.759 HEAT:  13.34038
 CYCLE:   100 TIME:   0.023 TIME LEFT:  2.00D  GRAD.:     2.250 HEAT:  13.33306
 CYCLE:   101 TIME:   0.023 TIME LEFT:  2.00D  GRAD.:     2.531 HEAT:  13.32687
 CYCLE:   102 TIME:   0.020 TIME LEFT:  2.00D  GRAD.:     2.762 HEAT:  13.32087
 CYCLE:   103 TIME:   0.020 TIME LEFT:  2.00D  GRAD.:     2.072 HEAT:  13.31499
 CYCLE:   104 TIME:   0.016 TIME LEFT:  2.00D  GRAD.:     1.574 HEAT:  13.30753
 CYCLE:   105 TIME:   0.020 TIME LEFT:  2.00D  GRAD.:     1.773 HEAT:  13.30042
 CYCLE:   106 TIME:   0.020 TIME LEFT:  2.00D  GRAD.:     1.931 HEAT:  13.29312
 CYCLE:   107 TIME:   0.020 TIME LEFT:  2.00D  GRAD.:     2.098 HEAT:  13.28579
 CYCLE:   108 TIME:   0.020 TIME LEFT:  2.00D  GRAD.:     1.979 HEAT:  13.27845
 CYCLE:   109 TIME:   0.016 TIME LEFT:  2.00D  GRAD.:     1.626 HEAT:  13.26942
 CYCLE:   110 TIME:   0.020 TIME LEFT:  2.00D  GRAD.:     1.521 HEAT:  13.25793
 CYCLE:   111 TIME:   0.020 TIME LEFT:  2.00D  GRAD.:     2.173 HEAT:  13.24766
 CYCLE:   112 TIME:   0.020 TIME LEFT:  2.00D  GRAD.:     1.962 HEAT:  13.24049
 CYCLE:   113 TIME:   0.016 TIME LEFT:  2.00D  GRAD.:     1.949 HEAT:  13.22468
 CYCLE:   114 TIME:   0.020 TIME LEFT:  2.00D  GRAD.:     2.048 HEAT:  13.21714
 CYCLE:   115 TIME:   0.020 TIME LEFT:  2.00D  GRAD.:     2.033 HEAT:  13.20468
 CYCLE:   116 TIME:   0.020 TIME LEFT:  2.00D  GRAD.:     2.289 HEAT:  13.19724
 CYCLE:   117 TIME:   0.020 TIME LEFT:  2.00D  GRAD.:     1.601 HEAT:  13.19090
 CYCLE:   118 TIME:   0.020 TIME LEFT:  2.00D  GRAD.:     1.624 HEAT:  13.18530
 CYCLE:   119 TIME:   0.016 TIME LEFT:  2.00D  GRAD.:     1.744 HEAT:  13.17914
 CYCLE:   120 TIME:   0.023 TIME LEFT:  2.00D  GRAD.:     1.824 HEAT:  13.17195
 CYCLE:   121 TIME:   0.020 TIME LEFT:  2.00D  GRAD.:     1.778 HEAT:  13.16632
 CYCLE:   122 TIME:   0.020 TIME LEFT:  2.00D  GRAD.:     1.414 HEAT:  13.16118
 CYCLE:   123 TIME:   0.023 TIME LEFT:  2.00D  GRAD.:     1.131 HEAT:  13.15185
 CYCLE:   124 TIME:   0.020 TIME LEFT:  2.00D  GRAD.:     1.280 HEAT:  13.14809
 CYCLE:   125 TIME:   0.020 TIME LEFT:  2.00D  GRAD.:     1.401 HEAT:  13.14277
 CYCLE:   126 TIME:   0.020 TIME LEFT:  2.00D  GRAD.:     1.327 HEAT:  13.13842
 CYCLE:   127 TIME:   0.020 TIME LEFT:  2.00D  GRAD.:     1.322 HEAT:  13.13293
 CYCLE:   128 TIME:   0.020 TIME LEFT:  2.00D  GRAD.:     1.686 HEAT:  13.12770
 CYCLE:   129 TIME:   0.020 TIME LEFT:  2.00D  GRAD.:     1.100 HEAT:  13.12490
 CYCLE:   130 TIME:   0.020 TIME LEFT:  2.00D  GRAD.:     1.141 HEAT:  13.12164
 CYCLE:   131 TIME:   0.020 TIME LEFT:  2.00D  GRAD.:     0.951 HEAT:  13.11992

     GRADIENT =  0.95124  IS LESS THAN CUTOFF =  1.00000



 -------------------------------------------------------------------------------
 EF PM7 XYZ HESSIAN SEXTET UHF CHARGE=1
 1001_M_9_6



     GEOMETRY OPTIMISED USING EIGENVECTOR FOLLOWING (EF).     
     SCF FIELD WAS ACHIEVED                                   


                              PM7 CALCULATION
                                                       MOPAC2016 (Version: 16.299L)
                                                       Thu Nov 10 15:54:16 2016
                                                       No. of days remaining = 350




          FINAL HEAT OF FORMATION =         13.11991 KCAL/MOL =      54.89372 KJ/MOL


          TOTAL ENERGY            =      -3185.68036 EV
          ELECTRONIC ENERGY       =     -19240.66141 EV  POINT GROUP:     C1  
          CORE-CORE REPULSION     =      16054.98105 EV
          COSMO AREA              =        256.10 SQUARE ANGSTROMS
          COSMO VOLUME            =        286.01 CUBIC ANGSTROMS

          GRADIENT NORM           =          0.95124
          IONIZATION POTENTIAL    =         12.365054 EV
          ALPHA SOMO LUMO (EV)    =        -12.365 -4.495
          BETA  SOMO LUMO (EV)    =        -13.918 -5.497
          NO. OF ALPHA ELECTRONS  =         48
          NO. OF BETA  ELECTRONS  =         43
          MOLECULAR WEIGHT        =        272.1421

          MOLECULAR DIMENSIONS (Angstroms)

            Atom       Atom       Distance
            H    25    N    18     8.35789
            H    26    H     9     6.48150
            H    29    N    17     0.81639


          SCF CALCULATIONS        =        148
 
          WALL-CLOCK TIME         =          3.363 SECONDS
          COMPUTATION TIME        =         13.227 SECONDS




   ATOM   CHEMICAL          X               Y               Z
  NUMBER   SYMBOL      (ANGSTROMS)     (ANGSTROMS)     (ANGSTROMS)
 
     1      Mn         -0.39896882  *  -0.30944806  *   0.02508470  *
     2       O          0.77272291  *   1.47669509  *  -0.12804020  *
     3       H          1.78623325  *   1.29881352  *  -0.12539905  *
     4       H          0.70782392  *   2.10957058  *   0.63286843  *
     5       O          3.39527104  *   0.98671993  *   0.05839214  *
     6       H          4.08161372  *   1.64323264  *  -0.08529634  *
     7       H          3.59265190  *   0.56949546  *   0.91058351  *
     8       O         -0.58286133  *  -2.36093765  *  -0.08705146  *
     9       H         -0.24438928  *  -2.69456587  *   0.81007082  *
    10       H         -1.58938080  *  -2.41604787  *   0.07083370  *
    11       O         -2.54490188  *  -0.50773462  *  -0.00672798  *
    12       H         -3.03444976  *  -0.09653597  *   0.76781854  *
    13       H         -2.97531652  *  -0.03222670  *  -0.76779338  *
    14       N         -0.27442048  *  -0.43329597  *   1.86301418  *
    15       C          1.04861047  *  -0.19267102  *   2.17734626  *
    16       C         -1.18443056  *   0.47512889  *   2.36855247  *
    17       N         -2.04868078  *   1.12226425  *   2.79918905  *
    18       N          2.16537642  *  -0.11216514  *   2.49073627  *
    19       C          0.09393214  *   0.16735618  *  -4.59643224  *
    20       C         -0.26769552  *   1.25110884  *  -3.80050281  *
    21       C         -0.45837460  *   1.07577997  *  -2.42790859  *
    22       N         -0.31004913  *  -0.15525797  *  -1.83565209  *
    23       C          0.04979535  *  -1.22283895  *  -2.62129201  *
    24       C          0.25180384  *  -1.07870652  *  -3.99572639  *
    25       H          0.25055287  *   0.29285005  *  -5.67478281  *
    26       H         -0.40003309  *   2.24644327  *  -4.23846778  *
    27       H         -0.73168243  *   1.95078421  *  -1.80577705  *
    28       H          0.17468493  *  -2.22400639  *  -2.15966136  *
    29       H          0.53753567  *  -1.95356264  *  -4.59044345  *

                             CARTESIAN COORDINATES

   1   Mn       -0.398968822    -0.309448063     0.025084696
   2    O        0.772722907     1.476695095    -0.128040203
   3    H        1.786233246     1.298813521    -0.125399051
   4    H        0.707823922     2.109570582     0.632868430
   5    O        3.395271037     0.986719932     0.058392144
   6    H        4.081613724     1.643232643    -0.085296344
   7    H        3.592651901     0.569495460     0.910583507
   8    O       -0.582861328    -2.360937649    -0.087051456
   9    H       -0.244389285    -2.694565872     0.810070822
  10    H       -1.589380799    -2.416047869     0.070833697
  11    O       -2.544901876    -0.507734618    -0.006727983
  12    H       -3.034449757    -0.096535972     0.767818541
  13    H       -2.975316520    -0.032226698    -0.767793377
  14    N       -0.274420480    -0.433295974     1.863014175
  15    C        1.048610468    -0.192671017     2.177346258
  16    C       -1.184430560     0.475128894     2.368552467
  17    N       -2.048680779     1.122264254     2.799189048
  18    N        2.165376421    -0.112165140     2.490736267
  19    C        0.093932135     0.167356181    -4.596432245
  20    C       -0.267695524     1.251108838    -3.800502812
  21    C       -0.458374597     1.075779965    -2.427908591
  22    N       -0.310049131    -0.155257966    -1.835652092
  23    C        0.049795349    -1.222838952    -2.621292014
  24    C        0.251803836    -1.078706517    -3.995726386
  25    H        0.250552868     0.292850051    -5.674782814
  26    H       -0.400033093     2.246443273    -4.238467776
  27    H       -0.731682430     1.950784208    -1.805777047
  28    H        0.174684928    -2.224006388    -2.159661357
  29    H        0.537535670    -1.953562640    -4.590443447


           Empirical Formula: C7 H13 N4 O4 Mn  =    29 atoms

    Hessian matrix from geometry optimization
  244.3622
   33.3346  388.5365
   -3.4184  -69.9748 1296.9306
  -62.5264  -25.7677   20.3576 1011.2885
  -31.3047 -127.5344   -0.2412 -168.6076  483.6803
   23.9043   42.9560 -156.9799   -4.2094  236.1509  530.8781
    0.9150  -43.7529  -23.3898 -460.9299  100.0899  -57.6445  599.6171
   -1.6664   24.5632    7.9637   31.6557  -85.7720  -10.2522 -110.5987  171.6819
    7.1383    8.2633   16.5381  -39.7197  -16.1668  -76.4471    5.9853   39.3393  158.3948
   11.7928    5.7222   -2.6343 -108.9977   18.0354   36.8443   -9.5178   67.3524   64.7094  169.3027
  -17.8175   -3.6087   29.6384   49.6556 -220.2664 -260.9222   31.7797  -18.5051  -11.6397  -62.2608
  340.5404
  -36.0130  -14.7425   29.8924   81.8904 -233.0058 -387.9228   45.1221   -7.6202  -12.8719  -71.8435
  314.5281  565.4502
  -55.7330  -30.2739    3.0479 -459.1420  150.5616   47.7086    3.4821    8.6090   16.8723   46.9027
  -55.5779  -48.6432 1113.3795
  -32.4158  -58.3238   10.3575  155.4633  -58.0235    6.8198  -44.0134   -5.2918   23.6282   -0.6618
   15.3785   18.9676  190.0787  351.3170
   34.4762   11.9509 -102.6714   31.3693  -21.3551  -78.3616   -6.6522   21.7959  -23.9560  -43.2332
   22.8705    0.6829 -161.1829 -195.5508  744.3711
   48.8937   34.3000   -5.5904  -30.6212    9.2970  -66.0181   16.9694  -13.2307  -14.4857  -51.2196
   36.3549   56.0232 -576.7311 -296.0315  293.4539  690.3742
   32.2354   45.1579   -2.4043   -4.5213  -23.1648  -65.3575   -3.2358    5.5994  -10.9745  -48.8912
   24.3394   72.4001 -346.8060 -261.0950  138.9994  386.2322  443.6450
  -29.2697  -18.0359   -3.8751   11.8488    1.4599   67.2529    5.7485   17.8885    0.3662   32.2538
  -17.0124   -9.6348  305.5404  138.4829 -282.0656 -385.9322 -237.9140  490.6138
    1.7153   12.6380    2.2367    0.1914   -0.8329   15.4269   56.1864    7.0912   21.1226   14.4349
   25.9534   27.6720 -171.5516    1.9784 -116.0219   15.2250  -22.4011   20.9827  247.4351
   12.1158  -14.2477  -17.2937   39.2309  -29.7775  -21.6517  -12.8783    7.0563    0.8991  -12.0375
    0.4257  -41.9845  -28.9302  -43.9272  178.1426  -13.5049  -46.5916   53.3747   -1.0448  239.2035
  -13.8647   18.8140   38.4272  -58.5583   -0.0004   -6.1729   36.3633  -20.0217   31.6882   21.6869
   45.5931   55.9760 -148.6324   95.6791 -462.9279  112.6771   92.7642 -140.7608  199.5431 -262.9753
  857.9793
  -98.0281   49.5307  -12.5285   -4.0391  -22.2900  -24.1696    4.3833  -14.7217    2.6881   -9.7855
    1.8030   12.4931  -19.2697 -127.2496   12.6951   26.7852   31.0810    5.0177   -5.6420   -9.3020
    6.2088  699.5522
    1.8162 -192.5618  -15.0760   11.6394   -4.1071  -13.3001    6.1529    5.0350   12.9537    0.3482
   12.2696   15.5077    0.7755   27.0508   25.2739   -8.0628  -16.7012    2.7093    6.2775    4.5251
  -18.4157   -3.5991  377.3320
    4.6245  -73.5640 -142.4752    8.8105   12.9466   19.1557  -19.4270   31.1324  -14.1100   29.5704
   -1.1558   -9.8521   36.5388   10.9894  -48.3698  -65.2278  -44.1237   23.2011  -26.2427   12.1696
   -4.0391    2.4542  -95.5334  653.3041
   16.3872   26.2450    7.3656  -11.6949  -29.3181  -20.7237   30.0627   -4.3417   -5.5579  -29.0962
    3.7323   18.6215   -4.9892   23.7419    9.3624   25.7380   69.5984   45.7666    7.6105    7.0742
   26.6216 -210.8312   46.2832 -218.8335  415.3253
    2.5982   -8.3419  -17.6728   22.7907   -0.4841    6.2465  -18.2626    0.6321  -14.3743    9.4888
   -6.1222   -9.7113  -24.5140    3.4599   46.8584    8.7286  -10.3093   -0.8810  -11.3043   -8.2978
  -48.9232   36.1920  -63.3699  105.1814  -83.0502  151.7748
   22.9822   41.3326   14.5762  -18.0679  -10.5737   -7.6725   23.6694    3.4903  -16.0873  -18.0055
   19.1636   28.3798  -46.6862  -22.6625   25.7667   65.2635   67.5869  -12.3657  -16.2930   -2.9323
    8.2602 -163.4771   74.1180 -417.0867  287.7118 -158.1417  559.8151
   46.4937  -85.8218   -6.7210   50.1372    9.6615   -3.7752  -27.2277   25.3147   -1.9668   26.7789
   -0.1966   -8.2581   65.5963  113.4181  -44.1772 -117.5455  -34.8804   76.0504   -8.0651   53.3305
  -30.2904 -518.5086  -42.5496  215.9360  -49.2201   33.7683  -86.3406  784.8620
   -2.3942   -6.4205    2.7750   13.0096    2.9487  -13.3002   10.1356  -16.6981   24.4114  -18.4173
   23.7623   14.7152    3.7018    3.1704  -38.7261    0.0126    2.4783  -11.1960   -4.5349    8.1133
    2.4632  -78.9089  -49.2902   56.8627   -9.5286  -23.5581  -21.2739  109.4384  127.8895
  -27.0326    5.5957  -12.3559  -13.7878  -10.2692  -10.1384    9.2858    7.2050    7.3592  -10.7610
   -5.5562    3.1235   18.6939   -1.7903   43.7086   25.6091  -13.4926   22.7825  -26.0668    8.9386
  -14.6183  186.7700   26.3222 -119.9855  -65.0448   -6.0894   20.4584 -137.7833  -63.3676  234.2895
 -106.2243   11.6948   18.2353    0.2196    9.6856   25.3951   22.7604  -18.2454  -16.5184  -19.6905
   -5.0931    3.1830  -73.7476  -54.7766   22.8871   42.0715   51.0623  -11.9603   21.9449    8.6619
  -26.5699  -73.0897   -4.5555  -15.0101   31.0388   -1.6624   45.3349    6.3752   18.5392  -27.7445
  452.6566
  -47.5986  -81.3616  -28.1930    7.4498   -2.0612    6.9999   20.1063  -16.6383   -0.6901   10.8454
  -10.4531   -2.9227  -11.8541   28.7569   -9.4641    2.4617   -0.4623   -4.4433    8.0565   16.8547
   14.6302   92.4513  -18.3433   35.4852  -26.0914    6.6899  -30.6848  -16.3139  -20.8550   25.8608
  -96.9050  306.6095
  -27.3630   11.2889 -157.2813  -35.5456    4.9968    4.1201   -6.4996  -14.6225  -24.7853   16.3169
  -12.8251   21.5973   36.3418    4.8047   16.0376   -3.1320   -6.8845    6.6484  -14.6851   25.7852
  -41.9899  -35.1096   15.3491 -104.0555   50.6325   -3.3969   12.5367  -32.2563  -16.9584   23.7103
  -26.7861  -23.4371  716.6247
   -4.0955   -7.5526  -16.4838  -48.3024   20.3151   -4.2663    1.6824   -5.4843    7.6483   12.5699
    8.3433   -8.8045   21.8314   -2.7617   23.1324   55.6458   22.8172  -11.7203  -45.7872   -9.1056
  -21.6867   16.0627    6.1425  -48.0554   38.3978    8.1244    2.7069  -12.1750   -0.2667   17.8450
 -167.2127   82.3694  202.1650  284.4556
   15.4661   20.2313   24.2972  -10.1482   -8.3858   -9.5737   18.9019  -16.9773   -1.0001    3.1923
  -19.3992  -10.4093   18.9801  -14.1689  -17.4151    0.5111  -15.9766   10.8961   -1.4648   -5.7920
   26.4345  -23.4132   27.9090  -54.8917   47.2267  -17.4570   24.1155  -66.8655   -9.7098   57.6063
   82.3011 -105.1181  -85.0432  -96.0522  203.4337
   39.1319   36.7897    5.5733    4.2285   -4.6002   11.8392   -3.0470  -12.9885   -7.8039   -6.9138
   -2.6972   17.0638  -89.6790  -27.2783   35.2985   69.0045   13.8661  -74.8510   27.1609   12.0674
   34.1474   -6.4305    7.2706    2.7942  -12.2415   -7.9049   52.7148  -24.3269    4.9576  -15.4445
  152.5729 -115.7728 -294.9575 -217.2759  113.8745  478.1903
   10.8114  -31.2755    4.9424   22.1156  -27.7090  -33.9652   17.9609   15.9172   20.9272  -28.6247
   26.5501   -4.4231   24.9156   48.2739    5.8504   -2.3595  -37.2127   24.2602  -22.7107  -13.2561
  -13.7893   14.4026    5.7510   28.1914  -10.5974   -7.6997   -7.1243   27.7950   16.8685   -0.8522
 -160.9479   89.2142 -228.2841  -20.3990  -39.3508    8.1888  268.0834
   36.6066   23.9062    3.5824  -20.6936    0.1976  -32.5424   31.7841   -9.8735   -6.2847   -7.1960
    7.7836   -3.4645  -30.3144  -45.8840   35.8499   55.2867    3.0802  -26.4985    0.5948  -11.7616
   44.1530    6.2961   -8.5637    8.2056  -22.2184    0.2653   11.0124  -24.2520    8.1561   -7.2277
   82.7613 -127.1448  105.4799  -31.5943   24.7737   12.5352  -83.9945  204.9483
  -21.0826  -44.8663    8.5866   27.6507    1.8765   -0.7510  -21.1051   16.5766    9.8833   10.0869
    1.0722   -5.0912   -7.9514   46.1102   33.5888   34.5229  -24.6015  -60.4688  -24.2606   17.2462
   12.9963   43.3575   -6.4255   68.3959  -35.7099    9.2490  -16.5471   43.2257    9.8298  -10.4803
 -135.9414  132.4308 -364.8586  -20.1278  -33.8821  -40.6990  224.3983 -172.8553  549.3428
  -31.7263   -8.8010  -21.9693  -31.3414   24.0123   46.0822   18.7577   28.4516   31.5811   28.6830
   -8.0369  -44.0868   -2.2224  -38.1962   63.9099   41.4420  -11.5279  -26.1450   32.3564   13.1366
  -45.3345  -97.0089    8.0225   -0.8840  -39.1400   -7.8794   36.7972   12.6318    8.4958  -15.1859
  -14.2430   50.8204  -13.0196   15.4252   28.8634  -45.2582    4.4452   -0.9260  -27.7460 1484.7665
    0.2354  -68.3466   58.3072   -5.7620    1.8919   -0.4468   11.4710   -3.7222   -3.9573  -11.7336
    5.4926    0.9667  -49.2797  -35.4480   66.4177   15.5477   15.6495  -18.8127   19.4241   38.5323
  -56.2007    9.2840    7.9167  -12.4777  -11.1500    5.8155    1.4928   33.9787   14.3245   -1.6261
   26.8044  -11.1854   16.1615    3.6138  -25.7032    4.5959  -29.2171    8.0332  -23.9025 -186.2810
  582.9423
  -22.3529   84.0724 -735.5360   -1.4710   -2.6706   72.2867   -5.3993    4.0974  -24.8561    1.6323
   -3.6192  -44.4590  -55.3132   -8.4274   15.7169   -1.3920   -6.2359   33.7053   24.9312    2.1346
   18.1370    6.5307  -20.5723   52.0911  -19.4353   17.9001    8.7471   15.6852  -26.7258   -2.0868
  -33.5203   -0.6034   -1.2825  -41.6722  -13.1601   15.0951   53.5680  -18.5924   29.1486  -20.0930
  184.6564 1400.4581
    5.5680  -44.1625 -147.8873   14.2670   29.3136  -17.7128   18.3642  -28.9343  -63.3308  -30.3583
   40.4534   -6.2385  -92.0310  -57.3212   15.6264   19.1446   52.6504  -20.5977   22.2545    8.4679
   47.9797   12.5559  -13.3852   88.7866  -50.0546   16.7376  -20.2271   33.9290  -33.6856  -14.5949
   31.0907   -1.9821   56.1380    9.2763   -6.0782  -26.3474  -39.8640   18.6053  -88.0440 -608.7666
  -97.9791  -12.4088 3627.3580
    8.6723  -16.6739  -20.2367   51.3127   -0.8614   12.1261  -27.3738   18.6047    7.6070   -1.2525
   -3.3999   10.0263    9.8207   10.7512    5.4580    2.8978  -24.7372   35.0991   -5.3848   13.4444
  -64.3118  -25.8145    8.0287   -3.6715   -1.3940   18.3873   -1.3469   10.3837    6.4193    0.0549
   -4.9059    2.4693   -4.1353   -9.7097    8.3573   -8.2123   34.2241   -7.2157   20.3644 -103.1079
 -164.4911  -57.6135  307.6304  370.2189
  -29.8313  -44.3730  -83.3045   45.5650  -15.9088  -52.3293  -17.7578  -30.9248  -29.4004  -32.0991
   64.5105   58.2015  -12.8098  -15.4769  -53.1974  -30.3625   34.3793   -1.5271   11.4287  -22.8312
   95.4498   23.0154    2.3067   -2.8489  -14.4152  -16.3890   39.7493   -3.9044   -4.3132    0.3894
   14.1606    1.2666   32.1189   17.0728   13.0685  -20.2174  -56.3487   11.9502  -54.9162 -110.8307
  -76.5942 -231.4217 1081.6168  132.0286  929.8226
   26.4718    7.2931   78.2725   41.2621  -41.6692 -160.7908   78.1713  -58.1220  -36.5542  -76.4674
   29.9739  146.3284 -216.8999 -122.7705   81.8235  145.3267  139.2712 -130.4599   64.0072  -16.3511
   49.8339   48.8629  -43.1821  -66.5422    2.4358  -11.0333   87.1100  -89.0085    3.2519    3.1295
   32.6924   15.4045 -108.0663 -153.2064   47.9888   75.7162   90.5774   24.7697   10.1634 -457.5179
  197.4406  280.0563  -16.6465   48.4109    1.2619 3453.1343
  -21.8093  -21.1016  -18.6243  -37.5416   15.2597   -0.6048   11.4442    6.6798   -4.2644   11.0530
   17.6308   -2.5946   52.2315   38.2017   -5.8210  -22.9099  -22.1370   10.4182  -40.7194  -34.2401
   21.5687   -5.9711   32.4911   23.2615    1.6962   25.0663  -22.9675    4.4084  -14.4120    9.5243
    7.1082  -49.4338   -8.3366   -8.8392   15.4278   15.9308    5.9101    5.6852   10.9089  198.3364
 -330.6330 -137.2206   18.6131   10.4465   37.8509-1367.6815 1137.3682
   -3.1312  -12.8789  -33.5924  -34.8153   23.7821   55.3997  -12.1975   37.2017   52.2107   43.2475
   -5.3605  -64.1292   82.0477   51.6901  -22.1449  -45.0041  -57.4045   52.1285  -22.3589   18.7315
  -38.4031   -8.2047   13.0243    7.3660    8.3901   -0.7493  -29.7730   38.2534   18.6987    8.9631
  -28.0507   12.5999   -4.5792   89.4797  -32.2373  -25.1792  -34.3416  -39.8919   43.3500  178.9341
 -130.4055 -367.2773  -87.5490   17.6656    2.5015-1497.7895  596.0512 1164.1065
  -51.2174  -11.4758  -29.8864 -103.9020   57.7168  118.2811  -14.0064   50.5244   11.5368   55.8181
  -23.8612 -142.6565   80.7592   89.2443   38.9557  -32.4497  -83.2432   40.6591  -53.6082   42.5221
  -54.9100  -38.4255   41.2795   76.7167   11.6458   27.8197 -102.0165  152.0923   -7.1053    0.6955
  -44.1321  -39.4154   25.6367  137.6752  -84.6427  -38.3249  -42.1347  -51.9189   73.4834 -137.4797
  176.7748   79.5564 -117.9731  -10.5620  -46.3554-2629.7707 1069.8814 1204.5894 2784.8053
   28.7488   -7.7506   -3.5246  -21.9051    1.4515  -28.7529   52.0330  -19.2924    2.8498  -17.6705
    1.0022   11.9987  -55.4852  -52.6978   -1.8724   30.2816   35.2831  -13.7314   32.1792  -11.4791
    9.2408   73.5797   -3.0381  -81.9060   23.4869  -12.0580   59.1041 -103.9053   -1.2352   29.5522
   26.2279  -36.0009  -13.7930  -40.6665   23.0014   52.0602   -5.8086   29.2811  -18.1855   65.9067
  -43.7437  -94.5519   26.8538  -18.8532    5.1329 1169.9530 -728.9766 -487.2468-1281.8713  882.1034
   20.6705   11.5266 -115.6371   33.9305  -41.0307  -83.3248   75.0074  -38.5431   18.0646  -36.3812
   44.8561   96.9495 -103.2080  -62.4527    8.5784   36.4808   78.8640  -60.5887   51.0724  -35.5375
   51.9893    5.7848   -6.8191  -28.1801   -2.5722  -14.9198   93.7815  -72.8526   15.0626   16.2745
   37.2152   18.2407  -52.1918  -96.7248   77.1896   51.9454   35.2995    6.1453  -23.9350  101.7738
  -70.6008   92.5358  132.2109    1.9599   78.5864 1314.9863 -486.9568 -794.2905-1418.8537  619.6139
  942.9095
  -31.6194   37.5599   34.9946  -43.2104  -27.2019  -23.0646   46.2639   20.3098   39.3975   -4.8437
  -30.6455   63.3236  -15.5957   39.8793   66.5029  110.3215   21.2493  -83.1820  -24.2693  -18.8420
  -21.8543  -38.5044   23.2588 -134.4498  123.2780  -31.4006   47.4322  -46.9290   16.0298   16.4557
  -19.2932    9.1496 -105.5198   -4.0080  -11.3240   72.2459   90.1411  -36.9588  179.0350 -237.9124
  -81.0693 -193.2799-2716.9428 -229.6537 -907.3145 -106.0070   34.3679  107.9369   98.2265   42.9626
 -109.6880 3053.4835
    0.2264  -16.2337    8.9315   21.5326  -17.4010  -29.1892  -27.8428    7.4138  -14.8820   -8.5775
   22.8695   22.2680  -43.8600  -53.3442   74.7209   74.6389   57.6392  -64.7160  -16.3678    5.0357
  -19.3875  -64.0554   11.9047  -23.9901    5.9124  -17.7806   36.3040   24.1367    5.9976  -19.7781
    0.3672   23.1907  -16.8663   29.6208   18.0206  -23.5156   -1.3314    0.4342   -3.2628   39.7941
   28.8206   -7.6390 -219.3168 -140.9265  -54.9999  -11.4611   -7.5585   13.4048  -10.8718  -38.2069
   -0.7215  257.0991  179.0228
    4.4258   32.6603  -46.1109  -16.7239  -36.2071  -19.7590   28.5172   -9.9762   32.8615   -5.0072
  -36.0565   87.3366   67.6196   67.0533  -66.5811    4.7356  -29.4104   33.9164  -15.1283  -15.7252
   -3.4261   10.6487   17.1416  -62.1400   69.0084  -22.1019   -6.9748   -6.4777   31.0513    6.0175
   -2.7683    0.5730  -39.3106  -18.9117  -11.9545   52.2926   59.0996    4.8186   87.8575 -157.3073
  -19.4509   32.7277 -998.4648  -56.1112 -601.5352  -72.2491    6.9252   73.4933   71.6245   13.7799
 -107.1822 1146.7250   32.4798  746.8438
   -9.4258  -13.3572   31.5591  -35.8618   -0.6180   -6.4922   22.5021    4.3748    1.2044   11.6730
   10.3945    3.4235  -23.6866   14.8904  -81.8489   -6.8560    5.1832   -5.4435   19.2818  -20.4894
   56.8735  -24.4684   -1.5343    1.3711   10.1375  -16.1661    4.3559    2.6657    5.8791    3.3002
   -7.6708    7.7609   63.9658   18.9409   -9.6629  -35.2444  -18.0411  -10.6421  -28.1398  -13.4284
    1.5149   -3.5655   25.1526  -13.5949    1.9094   -8.3990   11.4882   -4.5056   25.0619  -17.6534
   -4.5178  -10.1171   -1.2646  -18.5377  419.6964
   12.5690    6.5124  -62.8098   -5.8578   -2.3838  -23.1128    0.5759   -1.3210    2.7092    3.7638
   11.9449   29.9638  -27.7456  -28.6321  -22.0467   31.7667   27.5434  -23.3417    5.7954  -16.1181
   37.2652    5.7301   11.0777   46.1663    1.4214  -14.3909  -13.4591    6.1040    8.7829    3.7538
    0.5889    1.8981   11.8429    0.3263   -3.7217   15.3388  -10.3859    8.7867  -17.1830  -67.7063
   29.8211   73.3391   66.6391   -8.5791  -53.4945  -24.0714   -5.0227   -5.2916   23.8482   16.2093
   -3.3032    8.2521    0.1540   53.1907 -142.7924 1567.3940
    2.7327    3.1887  -61.1894   14.4801  -15.3123  -24.2301   -7.3200    9.0015    1.8906    4.5749
   11.4297   -2.8479   -6.0234  -12.4015  -15.6897  -14.7629   -8.9166   -3.4692    8.9605    2.8965
   -4.3944  -16.8225   13.4020  -22.3055    2.5465  -15.7181   12.2447    2.9744   -3.9471   -0.7585
   24.2669   -7.0460  -37.6808  -22.7936   18.6862   15.3068    5.3146    3.7033  -11.2168   12.1544
    3.4680  -26.7240    6.9129  -12.8052  -15.1408  -74.0251   33.1093   22.2229   34.1372   -6.4752
  -10.5397   28.7659   12.0124    1.0774 -138.3217   46.9408 1348.4347
   -5.1215   -4.5982    0.7170  -60.3628   16.8490   -3.6281   41.7191   -5.6128    8.6555    1.3993
   -6.3384   -0.2700  -30.8619    8.6854  -47.9188   12.2517   16.1927    1.6533   23.3745  -11.2348
   45.6676   -5.3623   -8.9939    0.3315  -12.0050   -7.3648   -4.6412   -6.1874    2.1468    4.7863
   14.8037  -18.3249   42.4741   -7.9967    2.4391   -5.0706  -20.8674    0.1144  -35.7291   22.4921
    2.1385   10.1900   39.6054   -8.6193   24.5753    8.0142  -11.1265   -9.5496  -13.6579   11.9928
   27.2285  -49.9946   -3.0333  -45.2370 -180.7770   69.6815   90.1798  389.6562
  -12.1076  -47.1812   60.2706   -0.2045  -33.8846  -54.0453   17.7387    0.6038  -17.1339  -19.3153
   33.6435   34.9842  -22.5708    7.0020  -19.4265   12.9433   28.0486  -13.1251   -9.7677   -5.5166
   37.8570    0.4750  -18.8019   39.8005   -0.1568    2.0287   -1.7568   -4.4693    8.3700  -16.2266
   10.0032  -15.4055    6.8787   -0.2606    0.2107   -7.1420   -1.5498    8.7472   -0.3521   -0.2219
   -6.8845  -53.2856  -26.4019   -4.9326   50.2059   39.2664   -7.2459   -9.2126  -40.8009   14.8681
    5.6644   13.3142   34.4935  -36.0955  120.2445 -650.8070 -406.3848 -101.4434 1337.7706
   -3.2995    8.3423  -29.4716  -27.0780  -18.3829  -20.8025   23.4020    7.5655    0.2545  -19.1583
    8.6660    0.3574  -13.0404   10.8510  -42.0975    2.0771   12.4564   24.4271    2.5641   -6.2335
    3.8275   35.4206    5.5341  -33.9402   23.1009  -17.0374   26.5192  -34.3906    2.1337    4.7624
  -12.5512   26.0687  -36.2266   17.1008  -15.8673   -9.9123   21.3425  -23.8493   21.4901   26.7298
   39.3072    9.5630   25.2537  -27.6196  -16.3917 -119.1298  -13.9902  146.1358  117.5783   -3.0947
 -126.9838  -48.9560   10.3282  -12.0661   69.7786 -190.9910 -374.2719 -133.8294   89.4169 1452.6876
   -9.4912   -9.7391   14.8171  -24.1551   -2.9620   -0.2949   34.9989   -2.5661    7.7956   12.3531
    9.6788   -0.1394  -23.5051   18.2474  -39.0254   -8.9465    5.1298   17.0102    2.3795    2.7762
   27.2333    9.6838   -7.2601    9.7840  -19.7331   10.4691   -9.3920   -9.6366    0.6607   -4.8497
   -6.5465    0.3330   32.1687   12.2176   -7.2686  -15.2846  -12.4541   -0.6687  -16.4961   13.8567
   -3.9820   -1.8925   12.6457   -5.0019   12.7495    3.8885   10.0233   -4.8613  -19.4422  -19.6504
   15.7264  -48.8032    1.3130  -33.1293    5.1499    2.8241   39.1678 -158.6873  -12.4611   89.1006
  394.3704
    6.4115  -23.7742    2.1206  -34.7547   -8.1701  -23.2686   29.5271    3.4299   -3.9254   -4.9539
   -3.5398    5.7588  -19.4678   -6.4033  -33.3444    7.6169   24.8458   -7.8439   13.0165   -9.5367
   25.2734    8.6095   -3.2312    0.5992    6.4618   -5.6388   10.2192  -26.3556  -10.8283  -10.1106
    0.6802  -23.9773  -13.4309  -24.5114    5.8673   26.2035    3.2612    6.2583  -17.9461   12.1047
  -27.6517   69.2549   13.2931   33.7313   45.6530   64.5586  -17.6492  -99.1260  -68.0497   33.9151
   54.8720  -15.4642  -19.1248  -31.0509    4.1934   39.5403  -99.5405   23.6120 -173.2852  -88.0913
  -81.8696 1239.3555
   -2.1542   23.1317 -100.2786  -25.3350  -23.7197  -31.3997   11.5241  -10.9680    7.7490   11.8516
   20.4840   -1.9776   29.5777   16.8267  -36.4089  -26.7263  -22.0239   16.4370   -2.1136  -20.3404
   31.3429  -22.3432   -3.5535   -6.9196    0.1459    8.4973   15.5289   13.8243    0.2874  -10.6323
  -12.0503  -15.3154  -20.2697   -3.8838   12.8454   -2.5994   27.4591    0.0838   11.8018   16.7848
  -45.2601   46.2501   -2.4313   31.6603   51.1892   65.8234   17.3169  -96.1526  -81.4367   24.3814
   83.3729  -10.3511    2.0920  -25.1195   77.5758 -292.7910 -189.8834   61.9905  154.4793 -743.3723
 -137.7352   -5.6242 1489.1331
  -44.7945   -5.0600    6.7724  -31.3244   15.6666    6.6501   17.9325   -6.3330    8.5768   27.4659
  -18.1963  -27.8227    8.7440    1.7836  -12.2535   -3.5750  -10.1900    3.9498   -2.9314    1.4103
    2.7548  -20.1159   -9.2113    7.2826   -8.9591    7.2807    7.8655   25.3786    4.4094  -20.6350
   -4.9991    8.3631   32.7023   20.1960   -9.6134  -26.4712  -13.3361    0.7365    5.4558   34.3925
    8.4676    0.3888   44.7194    2.8251   18.3610   29.7535  -15.0218  -20.4800  -39.0476    7.8038
   33.6918  -66.0055   -5.7510  -35.2148   -1.5181   10.4445  -31.7704   37.0598    8.7448  -37.6525
 -117.1078   25.0408   46.3691  313.8492
    9.2606  -73.3681   99.1127  -26.0509  -27.4865  -28.9901    1.4477    2.0543   -7.4249    3.5998
    1.0307   11.8173    1.9415   -3.6222  -38.3212  -19.5075   13.1309   35.8591   -9.6720   13.5498
   -6.2001   -6.9355  -26.9724   54.6728  -23.2985    7.1050  -38.8046   42.3838    2.0502  -27.1827
   -6.3645   -3.6691   -1.6371   22.7960  -22.7394  -17.9906  -27.2116    6.4993  -17.3716   -6.8282
   33.9905  -67.9183   23.0076  -53.1350   -2.4711  -73.6172  -19.5471  118.2792   83.2839  -37.2376
 -131.4336  -58.8251   23.8863   -9.4246   13.5448 -214.5121   20.2520  -12.3343   29.3327  312.5534
   89.0630 -606.3060   19.6247 -134.3046 1467.1935
   25.4506   37.5658 -640.6925  -22.1726  -46.7863   20.0150   22.9394  -11.1453   14.6628   -4.1781
   11.9816   28.0327    4.3360   20.0601   -6.0805   -6.7942   21.3739    8.1531    2.2254  -15.5872
   47.1435  -13.1192   30.5221    8.7719   36.4493   -7.3822   44.6529  -16.0491   -2.3259    1.4091
  -12.8185    7.4814   -1.3431   -3.8939    9.4203   31.4381   24.9450  -14.2871   32.0414  -17.6397
   -8.6652  168.5775   30.5431   -8.5739   25.0557   46.9312   -6.5866  -24.9982  -53.3455   12.8590
   90.8750    7.7230    6.0270   65.9159  -43.4020   68.8779   29.3694   -0.6962   56.5895  -59.8927
   14.3668  226.8525 -297.8299 -112.9099   20.5869 1589.6924
   -9.3448   -0.6746    9.6432  -28.9495    4.8340   -5.3040   12.1256   -1.9188   -6.9363   21.0855
   -3.0056   -3.5084   -2.4998  -20.4986  -29.3614   15.8488    3.9484   -3.0109    0.2354  -14.4520
   22.7090  -56.2986   -5.0278   -1.8881   17.3184   -0.6605   18.9244   50.7761    4.3973  -24.9250
  -16.7017   17.8216   35.8753   29.9012   -5.6371  -20.8792   -2.3228   -8.1347    2.4991    4.9170
   11.7207    0.9786    5.2809   -5.1630    2.5282   -0.4176   -7.9567   -6.0786    0.9122   -0.8252
    3.1723  -19.6932    1.7409  -15.7396   12.6942   -7.0950   21.3692   -6.8674   -0.1065    2.7162
   14.7834   42.4150  -19.6434 -140.5122   77.4458   99.6993  401.9980
   -6.6662  -20.0394  -17.3229   44.7416  -13.8407  -53.8059  -20.3752    2.7984    3.3207    8.3472
   16.7970   42.7609   -3.8543  -22.5520   34.2876   -9.3900  -16.6133  -17.8497   -4.7748    9.6577
  -19.0891   -1.4348  -18.7597   67.9540  -37.1736   14.2833  -44.3159   40.5307   13.0557   -3.7812
    7.6519  -21.9991   13.5740  -30.8108   15.0935    2.5183    1.2517   17.6055   10.3417  -26.9870
   -2.0765  -27.1116   25.5946    7.8230   21.0456   16.5214   37.7162  -42.9374  -11.9245   -9.9942
   48.4671    2.5247   -4.7590    4.5368   11.6718   13.7145   90.3136    9.9954 -125.5943 -108.0518
   -7.5641 -204.5891   64.1747  101.2388 -577.0826 -328.1238 -111.5935 1272.0604
    2.2566  -14.2157 -112.7004    5.4966   -9.0852   19.3751  -17.3432   -8.0768   -7.1270   12.6594
   -0.9649  -14.4427   -6.6910    2.2626  -37.6825  -12.9418    0.1464   34.2371    5.3490   -6.2221
   14.4302   14.4606   25.9032  -33.6637   12.6509   -5.4243    6.7504   -2.8822    2.0533  -15.1494
  -10.2368   26.4708  -26.8966    5.0111   -1.9511   14.0678   11.6672  -23.4593   16.8319  -47.0115
   -9.5135   59.1174   94.3582  -12.1183   21.9307  -32.3390   -9.2321   68.7241   47.6455  -11.5350
  -55.0401  -59.1100    4.9877  -14.6795   14.7930  269.5338 -151.3933  -11.1981  -25.5849  -39.9710
  -11.1351 -120.8495  105.3785   76.8517  -94.8167 -327.3859 -159.9772   23.3271 1423.7002
  -11.8087    2.7614    1.9630  -14.0552  -12.3304  -21.7381   17.3914   -1.0568   -0.5025    5.6233
   14.8917   14.4087  -38.5590  -13.4252  -50.7450   18.1243   10.5866  -20.4785   15.0098  -21.4612
   46.7318  -51.6757   -0.2324    1.1301   21.7621   -7.6837   23.7176   27.3699    7.1100  -15.7594
  -16.8176   16.6999   48.9317   23.7782  -11.7822  -27.3973   -7.9928   -8.6420  -11.9236    5.5231
   -4.6399    4.6457  -15.6454   -4.9010   14.2575  -15.1758   -2.3427   16.0851   25.2192    1.8426
    0.1520   24.5359   -1.4326   -6.8024 -156.3496   56.9448  -11.8870   20.5299   29.1174   11.6251
   -7.2737   11.2325    5.3133   14.3961   27.6359   28.8743 -155.7479  -34.6159   72.5202  389.8355
   -1.1133  -54.4246   68.4470   17.7781  -22.5928  -35.2614  -25.1380   10.3211    0.0566   19.3227
   23.5737   -7.5345   20.9036   -3.5554   -2.6034  -29.1635  -49.1336   28.3694  -10.4361   19.4588
  -46.5161   -6.7461  -12.1137   70.0133  -45.7711   37.4764  -65.3738   41.5515    1.0514    2.4527
   -2.6841    2.8808  -19.8131   -7.0802    1.4070  -21.4023   14.2368   -5.4132   21.8539   32.4401
    6.3414  -33.1301  -29.0924   21.2200   18.3106   -1.0225   44.6992   -8.5025   23.9201   -7.9020
  -25.4124  -40.0310  -10.9068  -36.8707   29.5522 -757.5219  315.1187   30.9532 -233.9635 -119.6701
   10.4415  -89.4287   59.4692   -1.9999   55.5841 -140.6867    5.7250 -182.4277  -50.0892  -84.9683
 1371.2851
    4.8726   10.4075  -88.0117   -8.3488   -3.8472  -25.1498   24.7631    0.0059    2.0760   -6.1507
    1.5498   14.3473    3.9356   -7.8376  -36.6375  -21.2500    3.5022   -7.0069   13.6519  -14.4546
   19.4907   11.5271  -12.3501  -62.0645    6.9375  -11.4650   34.4287  -31.0702   -6.4995   15.2789
    8.7545  -16.6111  -10.6438  -28.3499   17.9970   11.8285    9.4314   -0.0031  -16.9658   17.3927
  -34.1938   59.1192   -4.4684   25.2598   28.7841   -3.0679   21.3079  -79.1252  -12.2291    3.2510
   61.3780   21.9396  -18.7420   -8.0227   12.3173  116.1510 -281.7982   -1.3328   61.6604   47.9658
  -19.4295  126.0734  -55.2034   33.6027 -330.2207 -151.6139   49.2858  208.8901 -700.0474 -121.7041
  -78.6517 1477.4964
    9.6317   -6.3026    4.3484   -9.0645   14.7637   13.7244  -16.7100   -3.1780    2.1391   -6.5851
   19.3319   -0.3597  -27.8550   -4.5400  -20.7089   16.0227   15.0674  -23.3365   23.0791   -5.8185
   25.5790  -13.6041   -2.3584  -12.7269   12.0826  -25.3323    2.7033  -10.9061    7.7670   19.0433
   14.7394    3.5566   22.0383    2.8189   -4.9002  -13.9749  -21.7088  -17.6424  -33.4148  -13.9934
    3.7003   16.8090   17.7692  -12.7427    7.1795   55.8444    0.5799  -46.4591  -35.8592   17.4127
    5.3431  -10.6098   -7.8082  -10.8187  -80.1090   -0.2993   40.0197   15.2250   -3.5315    5.5772
    8.1862   11.5216  -11.3913   -8.3078   14.7594   17.5712   13.2758  -21.0549  -13.9511   25.6172
    3.9755  -11.2737  175.2002
    1.1431    6.0542    7.9797    0.5444    6.5978   -7.0421   -6.5903    3.4543    3.1524   -3.7474
   13.0614    7.9483   -6.7196    2.4717    9.7964   13.2346    4.5819   -3.4365  -10.8479   -1.7457
  -12.4109  -10.1339    4.0987    2.2424    8.0882    2.3504   -0.0809    7.0909    7.7722    0.1543
    5.8173   -1.8199   -3.6504   -2.5505   -0.8489    4.5235    4.9230    9.7667   -7.6116   -7.7261
   -8.2700   -8.9613    4.3324   -3.2088    1.8627   28.9630   -6.5088  -17.2704  -19.1569   -2.0587
   25.6646    1.0955  -15.2127   -8.5283   -6.9560  -62.5701   12.6700    6.6686  -20.9198  -51.4706
    4.9521    1.1136  -10.5373   -0.9164    0.4458  -10.6003    3.2745    9.7639   -4.5255   -1.6637
   -6.0562   61.6865    0.1279  203.0766
   -3.7669    3.6602   -7.5556    8.8689   10.4491   29.6697  -27.8499  -14.2789    4.6782   -8.6003
    5.1436   -3.6007   19.5646    7.1476    6.8349  -12.9180  -13.2975   20.0155   -4.9942   -1.9359
  -13.0715   -4.6048   -9.8155   34.6360   -4.9331   13.9180  -20.8092   16.7524    6.5330    6.2853
   -9.7416   -1.7762    4.4662   -1.4603   -3.2742    4.0612   14.6839  -13.8479   15.3294  -31.5527
   -0.2792   91.6768   24.5548   12.1783   18.4091   89.2332  -21.1676  -29.1519  -36.0838    9.2765
   34.0273  -32.7224  -16.5690   23.1009   28.9884   23.5694 -425.9018   -3.9504  -42.7115  -62.4218
  -14.6059    0.4046   49.3136   13.1267   -2.1081   27.7366   -7.6916    0.0462   39.9849   -3.6258
   42.1803  -36.1077  -39.9399  -18.9296  587.7951
    0.0142   -1.9943    4.7301  -12.1809   -9.0991  -16.0712   23.3864    5.2342   -3.2441  -30.5853
    5.1047   25.8695   -8.2638    8.8179    2.7501   19.0819   22.5526   -4.8132    1.1056   -4.8809
   10.8042   -9.4254   -4.0169   -0.0763    3.3682  -16.5339   -1.3297  -11.5108   17.7389   -3.7014
    0.4489  -18.6338   33.8129  -11.5289    3.1243   -9.5904    5.2272   -6.9588  -21.9198   15.0718
    4.0183    2.1151   37.3768  -14.5150   22.8154  -30.0345    0.5247   22.0924   34.1919    3.7061
  -20.4994  -56.3526   10.6147  -50.9581   15.2514    0.6188   -6.9984  -56.4146   31.4841   18.8622
   25.4752   -5.0791   -8.2406    3.3097   21.0426   -2.6451    0.5199  -16.3182   17.1224    3.2002
   -7.1339  -14.3495  -18.1834   -7.2079  -16.4380  168.7637
    0.1726   35.3395  -13.1540   -2.0494    3.7050   -1.0093   -0.8923    8.4768    2.9355   -1.6903
    8.5296   12.1968   -9.2706    6.4222    1.0157   13.1021   22.7763   -5.4275  -13.6157   -5.8257
   -4.0501   10.2102    7.3315  -18.2918   -3.8729    0.4356  -11.5224   -3.7760   11.9835  -11.0693
   -1.0670   11.8598   -5.6221   -0.8798   -2.1758    3.7704   -2.3308   14.8463   -8.1277  -18.0954
   -1.2337  -16.7691   -4.5125  -18.2757  -24.8579  -17.3838  -12.1427   18.1417   23.7198  -11.5879
   -9.6601   14.0693   -6.2342    3.3546   12.7101  -34.3278  -10.6596    9.8106 -329.0001  146.1906
    1.1349    6.9642   37.3838    0.1864   32.1612   -2.2001   -4.7640   42.5494    5.2484   -3.9657
   20.6257  -32.5256   -5.7241   19.0921  -20.0725  -20.9689  532.3955
   -4.5890  -11.7093    0.3152    3.1463   -6.3982   -2.8899    4.5726   -2.4885    1.8498  -15.7641
    8.6775    1.8228   -2.8989   -1.5561   14.2930    6.1645   -3.7753    6.7497   -7.9214   -7.1137
  -12.4770   -6.2645    0.6993    7.9811    7.2263    1.1050    6.7168    0.5008    2.7918    6.6645
    7.1495  -18.0594   -0.0106   -2.3874    5.1144    5.5360   17.9978    0.9508   -2.3555    1.5194
   -8.7889   16.1084    3.9993    6.4634   14.4648   24.4655    0.7618   -2.5242  -19.3785    6.3925
   30.3513    1.0560   -4.0220   -2.3488   -1.5927  -46.3070   16.4420  -10.3488  132.2776 -133.6275
    3.8376   40.2805  -71.0972    1.9151  -16.7049    6.3177   -2.7117    2.8075    9.8355    4.6798
  -14.3065    9.2310    3.1740  -10.9590    3.3845   -3.4455 -151.7682  255.4739
   -5.4785   -4.0265   -0.2647   -0.6073   16.4242    5.0712    8.7997  -13.0866    4.2480   -0.7833
   16.9974   -0.7090   41.2429   14.7871  -32.0221  -13.1982   -7.8458   32.5297  -13.6963   13.4010
   23.1943   -4.4701    2.0728    9.4869  -17.0410    8.4724   -3.5829    1.5792    0.5338   -8.7440
   -2.5254  -10.2928   -2.1860    7.0576    0.2428    4.8453   -3.5392  -15.3509    1.5497   -0.6148
  -23.0995    3.9536   23.2684    1.0116    2.4143   74.5384   -8.1825  -52.2614  -90.1619   18.6930
   44.1936  -25.2607   -1.4386  -17.8224    7.1959  -12.4860  -16.1211   18.2720   12.1891  -11.9436
  -64.8216   34.0242   56.6648    7.5488   -7.1127   -2.9903    2.2841   -2.2766   -8.0228   -8.4726
   -5.1060   11.8375  -15.5722  -12.6040    2.5388   -5.7718   -7.8577   -5.5955  189.1576
   -5.0048   14.9600   29.7067   12.0516   12.0422    9.8524   -9.1182   -0.0050   -7.7462   -7.1414
   13.4300   23.2929   -1.1727   -2.8354   -3.1321    0.5411   15.6735    2.2347   -2.6362   14.2504
   18.2376   11.7948   10.9068   -1.0482  -10.8475    1.9984  -17.2141   -8.1399    3.2666  -13.5853
    2.9983   20.0044   14.7135    0.1646   -1.4192   -7.1160  -24.9681    8.0747    0.1980   -8.2014
   10.6107   11.8827   30.9092  -22.9010   14.3818   16.6592    2.9092    4.4115   -8.1843  -14.3416
   -1.7769  -32.8846    1.4206   -9.5500  -12.2428   42.4980   38.6037   -8.9554   13.0702   -9.9857
   42.7788 -273.7166 -177.7313    4.9821  -60.3362    2.4435   -6.1771   22.9337   29.0053   -2.0715
   36.4247  -37.2904   -2.0603   26.1335   -9.4278    2.3769   21.8576    9.3179  -43.8283  440.2983
   -8.6562   19.4927    1.3153   13.9601    1.4850    3.1460  -10.5863   -3.9781    7.1831  -10.3168
   16.9042   10.0514    0.4706    1.9781   13.7448    6.1690    0.2114    6.6633  -11.3243   -5.5188
   -0.4256    3.7518    1.6643    2.4319   -4.5578    9.1721  -10.2336    2.8080    3.8791    0.7680
    5.6618   -4.1582    0.4193    3.1920    1.0266    3.2021    5.8499    4.6978    2.7567  -23.6163
   -1.7690   -8.8252   30.3443   -9.6516   15.6969   22.4242    4.1944   13.9431  -11.8364  -14.8719
   22.2581   -3.9338   -4.0950    3.7181  -15.6289   29.3918   25.7565   -0.7699  -45.0766  -64.6806
   33.7390 -158.4881 -171.7803  -11.1799   38.7536   27.3701   -5.3731   27.8305   27.6246   -2.3268
   29.5000  -17.9118    1.4480   12.3244    5.3804   -7.2521   10.4428  -10.4384  -36.0288  168.5313
  302.2491
   -5.4609    3.3272    7.3982   26.1050    6.8355    0.6689  -33.2438  -14.7722  -26.1526   12.5487
   10.9291    3.1316  -10.7327  -18.1321    3.5256   22.2394  -11.6584   -6.5884    1.4373  -11.9261
   14.8366    0.2407   -4.8484   13.2635    3.7325    3.7391   -8.2844   43.4697   13.5568  -28.2163
   -8.2960   10.4402   20.0157   21.2198    0.9102   -4.5856    5.8437  -12.4741   17.6100   -9.4722
   -8.2220    9.6450   31.8044   -3.1793   17.2803   30.1462   -0.4239  -24.8230  -33.5692   -4.1025
   18.5068  -44.7307   19.6814  -43.0209    4.3461   -8.2617   -9.7161  -12.5371    9.8321   14.5567
   -0.5989   -0.6584   -1.6380    8.9472    7.1686  -21.4431  -55.4896   11.7659    3.5157   22.5465
   -7.3889  -10.3685   -1.8885   -0.0079   -5.1616    8.4360    1.2513    2.7868  -15.7101   -8.5076
   -3.1356  171.8552
   -1.7363   17.1175  -40.4105    5.7613   14.1126   34.6100  -20.5117    3.4914  -16.7031    5.3203
   -4.9408  -16.2361   11.0155   11.0168   -9.9051  -16.9056   -3.9357   15.3443   -9.4057   17.2696
  -19.0638   -3.0014   15.7455   -3.5610   -5.9476    2.4559  -22.2266   23.4861    9.0101  -18.6976
    5.0825   25.2311    1.8103   -1.5291    1.8962    1.9629   -6.7973   -7.4529   -5.0783    0.0023
   13.7016   33.3729   42.0956    0.2185   -1.6943  -33.2218  -16.4761    1.3339   57.8359  -25.0360
  -31.5833  -72.9250   -5.6900  -28.1673   -4.3016   51.4333    1.7594   -1.2187   39.9522  -14.0559
   -0.1953    3.1614   16.3806    3.9554  -55.4540  -13.4854    5.6257 -300.8845  133.9987    0.2769
   16.4040   33.5528   -3.3758   15.0094    6.1721    6.0100   21.5057    0.8669    0.0427   14.7153
   -1.7619  -21.9607  493.9776
   -3.2529  -16.5242   14.5766   -1.0892   -5.7131   -9.9250   -2.7650   -7.8202   -6.5760    1.4449
    5.8185    7.7278    4.5696   -9.9776   -8.0915  -11.8307    0.0884    1.3821    6.5250   -4.3766
   19.2515    4.8256   -0.8815    2.1572   -3.1464   -2.9767    1.8059   -1.6255   -2.6103   -8.1526
   -2.0213   -1.4661    4.8942   -6.6027    6.6824   -2.1011   -1.1966   -3.7079    9.3502    3.8288
    0.7042   -2.6859   11.6833   -5.1945   35.6978   13.9398   11.8365   -6.6758  -15.9170   11.5442
    6.2375  -12.7198   22.0200   -7.3413    3.7119  -22.7917    2.8717    1.6902   -7.1240    3.6396
    0.7923  -14.8690    9.3457    2.4195  -40.5692   29.7847   -3.3627  128.1827 -122.3114    4.6254
   27.6781  -61.3536   -1.6813   -5.6654   11.6116   -2.9785  -11.7242    3.2620    1.7073   -2.8543
    4.6243   -3.2543 -147.3912  266.0531
   -9.8810    2.6271    7.4075   16.3680  -15.2584  -28.3412    4.9710    4.0199  -12.4587  -11.8883
   15.0745   20.1276  -23.5195  -12.3877  -12.9906    7.6185   -3.5598  -29.5081    2.6189   -8.3796
   20.4272  -16.4000   -4.1304    5.5284   13.3297    8.5101   12.1540   20.0413    3.3394   -6.1012
  -12.6632   -6.5815   20.2755    2.9740    1.4788  -18.1632   -6.3165   -8.9849   -9.2267    8.6750
    6.6143  -22.3751  -20.8568    9.9167  -12.6296  -40.1822   -1.2736   34.6150   42.5114  -10.1749
  -31.1849   29.0882    0.9707   22.3922   23.4651   13.8869   -1.4349   -1.5171   -1.8999    3.4657
   -6.4313   -6.0480   -0.6881    0.6844   -8.3090  -10.3820   17.0181    9.5011    4.5404  -61.0076
   28.3044   35.3955   -2.8904    6.4380   -4.9146   -5.1001    4.7074    0.3888    8.5321    3.5630
    5.0814   -5.3724   -0.1381   -6.8190  195.8780
   -6.2669   19.8343   10.8285    1.6803    5.6013   16.9271   -5.9350    6.4100   -4.1143  -12.5716
    5.3494    9.3166    2.0367   17.0657   11.5617   -4.5125   -9.0003    8.9598   -5.4310    9.8539
  -16.0486  -16.1790   18.5407   17.4634   -1.9209    4.0632  -14.7620   32.8000    6.2296   -7.6372
   -2.9864   -0.4426   10.5926   -5.4405   -0.8328   -0.3172   -2.1595    9.7384   -6.5993   17.9912
    8.1136   17.9648    8.1607   -3.0362   -4.6532  -14.5880  -15.4024   22.5540   25.6148  -19.4528
    0.2642  -23.6207  -22.0614    2.8932    1.0698  -43.0512    3.1744   -8.4643   42.1916   39.7139
   -0.8119   32.1208  -18.3693   -5.2139   40.3593   24.7581   -1.7230   21.5385  -57.9123   41.9827
 -309.9578 -164.5091    5.1668    6.2487    5.9214   -0.2099   34.5180    1.5928   -6.0396   25.0087
    4.4144    2.7956   21.1556   -2.7343  -32.0122  492.8096
   -3.3295   13.8382    1.5600   -9.5336    2.0490   14.3439   -3.4303   -3.7297   -6.5597  -10.6445
   -4.2100   -0.9042   12.6672    2.7406  -16.7299  -24.5545   -1.3897   11.1021   10.5282    4.5428
   10.5106  -12.8749   12.6310    6.3312    3.3466   -7.6676   -0.3214    8.5262   -5.0903  -13.4916
   -2.8054   -1.2078   12.8222   -6.0458    0.6391   -3.0562   -8.7154   -3.6501   -7.5473   20.0926
    4.3725   35.3498   27.4090   -1.1017   26.6749  -22.9936   -8.6032   20.2397   23.9254   -3.0057
  -16.7951  -40.6333    1.7765   -1.4539  -11.2225   42.7549   19.2676    5.0639   20.9561   21.1847
   -2.9140   24.5533   10.3891   -6.3995   28.2381   28.2224   14.9888  -47.2453  -90.2728   30.8329
 -160.7754 -161.4727    2.0138    3.0648    4.0107   -1.1542    4.4152    6.6009    4.6045   -1.1252
   -2.9311   -2.0502   -1.6634   -3.6164  -28.4873  174.1690  297.3071


      MOLECULAR POINT GROUP   :   C1  


          ALPHA EIGENVALUES  
 -42.99331 -42.42232 -38.49073 -38.10904 -34.60795 -33.73499 -33.41919 -33.01842
 -32.53351 -30.70860 -26.77565 -26.21150 -25.14120 -24.12202 -22.46748 -21.50475
 -21.41232 -21.30809 -21.13542 -20.89264 -20.21335 -19.95216 -19.67723 -19.55300
 -19.26612 -18.86105 -18.73933 -18.49679 -18.21759 -17.77113 -17.69229 -17.52754
 -17.43056 -17.20784 -16.78144 -16.62656 -16.43190 -16.37214 -15.77793 -15.53889
 -15.49061 -14.85180 -14.69936 -14.36486 -14.31491 -14.24103 -13.56989 -12.36505
  -4.49457  -4.31940  -3.82221  -2.58088  -2.55277  -2.40723  -1.94266  -1.64230
  -1.59166  -1.15224  -0.59986  -0.36075   0.04432   0.09412   0.33313   0.56256
   0.78699   0.93771   1.01222   1.40803   1.52847   1.58531   1.76553   1.82904
   1.95327   2.02010   2.05758   2.15324   2.34122   2.62125   3.19488  48.17196
  49.67273  52.51287


           BETA EIGENVALUES 
 -42.79996 -42.49077 -38.40876 -38.02277 -33.97068 -33.15585 -33.04421 -32.94430
 -32.36989 -30.68788 -26.75515 -26.19621 -25.07371 -23.87265 -22.37438 -21.38532
 -21.29877 -21.11796 -21.03869 -20.86125 -20.12582 -19.85177 -19.51767 -19.22806
 -19.08353 -18.78181 -18.50252 -18.26572 -17.99206 -17.59452 -17.47289 -17.16158
 -17.02426 -16.71729 -16.55402 -16.32658 -16.27573 -16.16603 -15.74265 -15.27380
 -15.11697 -14.33856 -13.91846  -5.49683  -5.40954  -5.07783  -4.80323  -4.43540
  -4.23356  -4.16989  -3.14628  -2.52555  -2.45293  -2.26660  -1.90972  -1.58568
  -1.46773  -0.81468  -0.29358  -0.09348   0.05234   0.15129   0.35222   0.59549
   0.85916   0.97742   1.00692   1.43775   1.53979   1.70407   1.78305   1.92976
   1.99432   2.04478   2.05531   2.17564   2.54935   3.06124   3.20208  49.79857
  51.19289  53.61169


              NET ATOMIC CHARGES AND DIPOLE CONTRIBUTIONS

  ATOM NO.   TYPE          CHARGE      No. of ELECS.   s-Pop       p-Pop       d-Pop       
    1         Mn           0.506946        6.4931     0.99893     0.30024     5.19388
    2          O          -0.664809        6.6648     1.83050     4.83431
    3          H           0.392959        0.6070     0.60704
    4          H           0.339298        0.6607     0.66070
    5          O          -0.719434        6.7194     1.80006     4.91937
    6          H           0.371182        0.6288     0.62882
    7          H           0.382415        0.6176     0.61758
    8          O          -0.491454        6.4915     1.85200     4.63945
    9          H           0.336448        0.6636     0.66355
   10          H           0.334808        0.6652     0.66519
   11          O          -0.591951        6.5920     1.82774     4.76421
   12          H           0.355825        0.6442     0.64418
   13          H           0.336713        0.6633     0.66329
   14          N          -0.364311        5.3643     1.63187     3.73244
   15          C           0.245765        3.7542     1.08235     2.67188
   16          C           0.221465        3.7785     1.08360     2.69494
   17          N          -0.233749        5.2337     1.83957     3.39418
   18          N          -0.264593        5.2646     1.83679     3.42780
   19          C          -0.025188        4.0252     1.09828     2.92690
   20          C          -0.205599        4.2056     1.09345     3.11215
   21          C           0.087692        3.9123     1.10787     2.80444
   22          N          -0.231712        5.2317     1.52948     3.70223
   23          C           0.087651        3.9123     1.11035     2.80200
   24          C          -0.205941        4.2059     1.09379     3.11215
   25          H           0.192201        0.8078     0.80780
   26          H           0.200623        0.7994     0.79938
   27          H           0.197868        0.8021     0.80213
   28          H           0.207569        0.7924     0.79243
   29          H           0.201310        0.7987     0.79869
 DIPOLE           X         Y         Z       TOTAL
 POINT-CHG.    -0.811    -0.233    -7.899     7.944
 HYBRID         0.172     0.541     0.288     0.636
 SUM           -0.639     0.308    -7.611     7.644


          ATOMIC ORBITAL ELECTRON POPULATIONS

     Atom    s        px        py        pz      x^2-y^2     xz        z^2       yz        xy
    1 Mn   0.99893   0.05171   0.06792   0.18062   1.07115   1.02437   1.03716   1.03950   1.02170
    2  O   1.83050   1.51943   1.69916   1.61572
    3  H   0.60704
    4  H   0.66070
    5  O   1.80006   1.65044   1.68040   1.58853
    6  H   0.62882
    7  H   0.61758
    8  O   1.85200   1.41145   1.76514   1.46286
    9  H   0.66355
   10  H   0.66519
   11  O   1.82774   1.67836   1.68601   1.39983
   12  H   0.64418
   13  H   0.66329
   14  N   1.63187   1.03670   1.31364   1.38210
   15  C   1.08235   0.83412   0.93243   0.90533
   16  C   1.08360   0.90115   0.88160   0.91219
   17  N   1.83957   1.12046   1.13484   1.13888
   18  N   1.83679   1.15908   1.12294   1.14577
   19  C   1.09828   0.87254   0.96405   1.09031
   20  C   1.09345   1.02150   1.09960   0.99105
   21  C   1.10787   0.92756   0.89260   0.98428
   22  N   1.52948   1.24992   1.09777   1.35454
   23  C   1.11035   0.89920   0.95620   0.94660
   24  C   1.09379   1.02554   1.07780   1.00881
   25  H   0.80780
   26  H   0.79938
   27  H   0.80213
   28  H   0.79243
   29  H   0.79869


                    (SZ)    =    2.500000
                    (S**2)  =    8.788968


          ATOMIC ORBITAL SPIN POPULATIONS

    Atom   Total    s     px     py     pz   x^2-y^2  xz     z^2    yz     xy
         Atomic
    1 Mn  4.4957  0.215 -0.002 -0.003  0.004  0.917  0.950  0.496  0.945  0.972
    2  O  0.1013  0.021 -0.002  0.031  0.051
    3  H  0.0064  0.006
    4  H  0.0074  0.007
    5  O  0.0012  0.000  0.000  0.000  0.000
    6  H  0.0002  0.000
    7  H  0.0001  0.000
    8  O  0.2143  0.021  0.015  0.114  0.064
    9  H -0.0030 -0.003
   10  H -0.0070 -0.007
   11  O  0.1084  0.023  0.011  0.069  0.005
   12  H  0.0088  0.009
   13  H  0.0076  0.008
   14  N -0.0215  0.008 -0.002  0.001 -0.029
   15  C -0.0171  0.003  0.004 -0.007 -0.016
   16  C -0.0220  0.003 -0.001 -0.005 -0.018
   17  N  0.0566  0.001  0.011  0.005  0.040
   18  N  0.0470  0.000  0.003  0.009  0.034
   19  C  0.0710  0.002  0.058  0.006  0.004
   20  C -0.0591 -0.002 -0.049 -0.005 -0.004
   21  C  0.0843  0.006  0.063  0.009  0.006
   22  N -0.1024 -0.010 -0.058 -0.010 -0.024
   23  C  0.0850  0.006  0.064  0.009  0.006
   24  C -0.0600 -0.002 -0.050 -0.005 -0.004
   25  H -0.0018 -0.002
   26  H  0.0018  0.002
   27  H -0.0022 -0.002
   28  H -0.0026 -0.003
   29  H  0.0018  0.002

 **********************
 *                    *
 * JOB ENDED NORMALLY *
 *                    *
 **********************



 TOTAL JOB TIME:             3.37 SECONDS

 == MOPAC DONE ==
