 *******************************************************************************
 ** Site#: 26130        For non-commercial use only     Version 16.299L 64BITS**
 *******************************************************************************
 ** Cite this program as: MOPAC2016, Version: 16.299L, James J. P. Stewart,   **
 ** Stewart Computational Chemistry, web: HTTP://OpenMOPAC.net. Days left: 350**
 *******************************************************************************
 **                                                                           **
 **                                MOPAC2016                                  **
 **                                                                           **
 *******************************************************************************

                              PM7 CALCULATION RESULTS


 *******************************************************************************
 *  CALCULATION DONE:                                Thu Nov 10 15:54:38 2016  *
 *  PM7        - The PM7 Hamiltonian to be used
 *  TRIPLET    - SPIN STATE DEFINED AS A TRIPLET
 *  UHF        - UNRESTRICTED HARTREE-FOCK CALCULATION
 *
 *
 *
 *                 CHARGE ON SYSTEM =    -3
 *
 *
 *
 *  XYZ        - CARTESIAN COORDINATE SYSTEM TO BE USED
 *  EF         - USE EF ROUTINE FOR MINIMUM SEARCH
 *  T=         - A TIME OF 172800.0 SECONDS REQUESTED
 *  DUMP=N     - RESTART FILE WRITTEN EVERY  7200.000 SECONDS
 *  HESSIAN    - WRITE OUT HESSIAN FROM GEOMERY OPTIMIZATION
 *******************************************************************************
 EF PM7 XYZ HESSIAN TRIPLET UHF CHARGE=-3
 1002_N_0_3

   ATOM   CHEMICAL          X               Y               Z
  NUMBER   SYMBOL      (ANGSTROMS)     (ANGSTROMS)     (ANGSTROMS)
 
     1      Ni          0.00000000  *   0.00000000  *   0.00000000  *
     2       C         -1.51320700  *   1.51321000  *  -0.00000200  *
     3       C         -2.45571200  *   1.25389700  *   1.09065200  *
     4       C         -2.22237000  *   1.48749300  *  -1.28131800  *
     5       C         -0.88666800  *   2.82336600  *   0.19065800  *
     6       N         -0.39054700  *   3.85823900  *   0.34137300  *
     7       N         -2.78208800  *   1.46631400  *  -2.29415500  *
     8       N         -3.20004800  *   1.04806900  *   1.95285400  *
     9       C         -1.51321100  *  -1.51320600  *   0.00000000  *
    10       C         -0.88256600  *  -2.82704400  *  -0.14561200  *
    11       C         -2.43023600  *  -1.27962600  *  -1.11796500  *
    12       C         -2.25195700  *  -1.45807700  *   1.26357700  *
    13       N         -2.83512300  *  -1.41366200  *   2.26245500  *
    14       N         -3.15426500  *  -1.09413800  *  -2.00167900  *
    15       N         -0.38320500  *  -3.86491300  *  -0.26077500  *
    16       C          1.51320600  *  -1.51321100  *  -0.00000100  *
    17       C          2.82786000  *  -0.88174900  *   0.13425700  *
    18       C          1.45060600  *  -2.25925600  *  -1.25890400  *
    19       C          1.28628000  *  -2.42375400  *   1.12464500  *
    20       N          1.10605700  *  -3.14272800  *   2.01369400  *
    21       N          1.40027200  *  -2.84813000  *  -2.25402600  *
    22       N          3.86638200  *  -0.38173600  *   0.24035000  *
    23       C          1.51320700  *   1.51321000  *   0.00000200  *
    24       C          2.68674400  *   1.02286500  *  -0.72626000  *
    25       C          1.88370100  *   1.82616200  *   1.38207900  *
    26       C          0.99430200  *   2.71573100  *  -0.65581400  *
    27       N          0.58326800  *   3.66551800  *  -1.17424200  *
    28       N          2.17571300  *   2.07268900  *   2.47456500  *
    29       N          3.61371800  *   0.63439900  *  -1.30037500  *
    30       S         -0.02276900  *   0.01378300  *   2.22845500  *
    31       C         -0.02276900  *   0.01378300  *   4.04584300  *
    32       C         -1.24353300  *   0.75275500  *   4.57277700  *
    33       H         -1.23315500  *   0.74643000  *   5.68301600  *
    34       H         -2.17279100  *   0.25672600  *   4.22043500  *
    35       H         -1.23494600  *   1.80610300  *   4.22043600  *
    36       H          0.90141000  *   0.51100700  *   4.40880400  *
    37       H         -0.03474800  *  -1.03553800  *   4.40882500  *
 


          CARTESIAN COORDINATES 

    NO.       ATOM         X         Y         Z

     1        Ni        0.0000    0.0000    0.0000
     2         C       -1.5132    1.5132   -0.0000
     3         C       -2.4557    1.2539    1.0907
     4         C       -2.2224    1.4875   -1.2813
     5         C       -0.8867    2.8234    0.1907
     6         N       -0.3905    3.8582    0.3414
     7         N       -2.7821    1.4663   -2.2942
     8         N       -3.2000    1.0481    1.9529
     9         C       -1.5132   -1.5132    0.0000
    10         C       -0.8826   -2.8270   -0.1456
    11         C       -2.4302   -1.2796   -1.1180
    12         C       -2.2520   -1.4581    1.2636
    13         N       -2.8351   -1.4137    2.2625
    14         N       -3.1543   -1.0941   -2.0017
    15         N       -0.3832   -3.8649   -0.2608
    16         C        1.5132   -1.5132   -0.0000
    17         C        2.8279   -0.8817    0.1343
    18         C        1.4506   -2.2593   -1.2589
    19         C        1.2863   -2.4238    1.1246
    20         N        1.1061   -3.1427    2.0137
    21         N        1.4003   -2.8481   -2.2540
    22         N        3.8664   -0.3817    0.2404
    23         C        1.5132    1.5132    0.0000
    24         C        2.6867    1.0229   -0.7263
    25         C        1.8837    1.8262    1.3821
    26         C        0.9943    2.7157   -0.6558
    27         N        0.5833    3.6655   -1.1742
    28         N        2.1757    2.0727    2.4746
    29         N        3.6137    0.6344   -1.3004
    30         S       -0.0228    0.0138    2.2285
    31         C       -0.0228    0.0138    4.0458
    32         C       -1.2435    0.7528    4.5728
    33         H       -1.2332    0.7464    5.6830
    34         H       -2.1728    0.2567    4.2204
    35         H       -1.2349    1.8061    4.2204
    36         H        0.9014    0.5110    4.4088
    37         H       -0.0347   -1.0355    4.4088

 General Reference for PM7:
 "Optimization of Parameters for Semiempirical Methods VI: More Modifications to the 
 NDDO Approximations and Re-optimization of Parameters", J. J. P. Stewart, J. Mol. Mod., 1:32, 19 (2013)
 http://www.springerlink.com/openurl.asp?genre=article&id=doi:10.1007/s00894-012-1667-x

           Empirical Formula: C18 H5 N12 Ni S  =    37 atoms



      MOLECULAR POINT GROUP   :   C1  


 TRIPLET STATE CALCULATION


          UHF CALCULATION, NO. OF ALPHA ELECTRONS =   79
                           NO. OF BETA  ELECTRONS =   77

          Geometry optimization using EF

          DIAGONAL MATRIX USED AS START HESSIAN

 CYCLE:     1 TIME:   1.125 TIME LEFT:  2.00D  GRAD.:   457.425 HEAT:  610.0391
 CYCLE:     2 TIME:   0.074 TIME LEFT:  2.00D  GRAD.:   522.269 HEAT:  577.2248
 CYCLE:     3 TIME:   0.066 TIME LEFT:  2.00D  GRAD.:   194.481 HEAT:  518.3472
 CYCLE:     4 TIME:   0.078 TIME LEFT:  2.00D  GRAD.:   579.936 HEAT:  507.6196
 CYCLE:     5 TIME:   0.066 TIME LEFT:  2.00D  GRAD.:   269.230 HEAT:  466.6491
 CYCLE:     6 TIME:   0.195 TIME LEFT:  2.00D  GRAD.:   192.823 HEAT:  458.7593
 CYCLE:     7 TIME:   0.141 TIME LEFT:  2.00D  GRAD.:   228.952 HEAT:  458.3641
 CYCLE:     8 TIME:   0.062 TIME LEFT:  2.00D  GRAD.:    59.650 HEAT:  451.3914
 CYCLE:     9 TIME:   0.066 TIME LEFT:  2.00D  GRAD.:   214.426 HEAT:  450.1005
 CYCLE:    10 TIME:   0.062 TIME LEFT:  2.00D  GRAD.:   219.277 HEAT:  446.9103
 CYCLE:    11 TIME:   0.129 TIME LEFT:  2.00D  GRAD.:   103.625 HEAT:  442.1994
 CYCLE:    12 TIME:   0.160 TIME LEFT:  2.00D  GRAD.:    62.567 HEAT:  441.2570
 CYCLE:    13 TIME:   0.051 TIME LEFT:  2.00D  GRAD.:    65.933 HEAT:  440.7752
 CYCLE:    14 TIME:   0.055 TIME LEFT:  2.00D  GRAD.:    48.255 HEAT:  440.0496
 CYCLE:    15 TIME:   0.051 TIME LEFT:  2.00D  GRAD.:    38.612 HEAT:  439.1111
 CYCLE:    16 TIME:   0.109 TIME LEFT:  2.00D  GRAD.:    78.802 HEAT:  438.6905
 CYCLE:    17 TIME:   0.051 TIME LEFT:  2.00D  GRAD.:    43.553 HEAT:  437.5644
 CYCLE:    18 TIME:   0.051 TIME LEFT:  2.00D  GRAD.:    42.805 HEAT:  436.4173
 CYCLE:    19 TIME:   0.059 TIME LEFT:  2.00D  GRAD.:   134.874 HEAT:  436.1848
 CYCLE:    20 TIME:   0.051 TIME LEFT:  2.00D  GRAD.:    47.656 HEAT:  433.4818
 CYCLE:    21 TIME:   0.055 TIME LEFT:  2.00D  GRAD.:   111.333 HEAT:  431.5642
 CYCLE:    22 TIME:   0.113 TIME LEFT:  2.00D  GRAD.:   173.146 HEAT:  431.2060
 CYCLE:    23 TIME:   0.074 TIME LEFT:  2.00D  GRAD.:   132.096 HEAT:  429.7966
 CYCLE:    24 TIME:   0.082 TIME LEFT:  2.00D  GRAD.:   174.313 HEAT:  427.8822
 CYCLE:    25 TIME:   0.172 TIME LEFT:  2.00D  GRAD.:   129.476 HEAT:  425.9618
 CYCLE:    26 TIME:   0.156 TIME LEFT:  2.00D  GRAD.:    58.660 HEAT:  424.6527
 CYCLE:    27 TIME:   0.066 TIME LEFT:  2.00D  GRAD.:    47.347 HEAT:  424.0555
 CYCLE:    28 TIME:   0.074 TIME LEFT:  2.00D  GRAD.:    35.661 HEAT:  423.1763
 CYCLE:    29 TIME:   0.156 TIME LEFT:  2.00D  GRAD.:    94.575 HEAT:  423.1154
 CYCLE:    30 TIME:   0.074 TIME LEFT:  2.00D  GRAD.:    28.608 HEAT:  421.6872
 CYCLE:    31 TIME:   0.082 TIME LEFT:  2.00D  GRAD.:    29.349 HEAT:  420.1039
 CYCLE:    32 TIME:   0.094 TIME LEFT:  2.00D  GRAD.:    91.339 HEAT:  417.5759
 CYCLE:    33 TIME:   0.082 TIME LEFT:  2.00D  GRAD.:   110.089 HEAT:  414.3030
 CYCLE:    34 TIME:   0.082 TIME LEFT:  2.00D  GRAD.:   121.272 HEAT:  408.0797
 CYCLE:    35 TIME:   0.391 TIME LEFT:  2.00D  GRAD.:    86.064 HEAT:  406.7342
 CYCLE:    36 TIME:   0.074 TIME LEFT:  2.00D  GRAD.:   102.635 HEAT:  405.7191
 CYCLE:    37 TIME:   0.070 TIME LEFT:  2.00D  GRAD.:    43.145 HEAT:  403.4659
 CYCLE:    38 TIME:   0.082 TIME LEFT:  2.00D  GRAD.:    44.377 HEAT:  400.0812
 CYCLE:    39 TIME:   0.086 TIME LEFT:  2.00D  GRAD.:    95.110 HEAT:  393.5594
 CYCLE:    40 TIME:   0.094 TIME LEFT:  2.00D  GRAD.:   163.315 HEAT:  384.3332
 CYCLE:    41 TIME:   0.094 TIME LEFT:  2.00D  GRAD.:   327.987 HEAT:  376.0868
 CYCLE:    42 TIME:   0.094 TIME LEFT:  2.00D  GRAD.:   307.895 HEAT:  373.9114
 CYCLE:    43 TIME:   0.172 TIME LEFT:  2.00D  GRAD.:   165.488 HEAT:  364.3311
 CYCLE:    44 TIME:   0.172 TIME LEFT:  2.00D  GRAD.:   183.640 HEAT:  359.3379
 CYCLE:    45 TIME:   0.082 TIME LEFT:  2.00D  GRAD.:   212.407 HEAT:  357.2284
 CYCLE:    46 TIME:   0.094 TIME LEFT:  2.00D  GRAD.:   201.525 HEAT:  355.7976
 CYCLE:    47 TIME:   0.090 TIME LEFT:  2.00D  GRAD.:   153.530 HEAT:  351.6902
 CYCLE:    48 TIME:   0.094 TIME LEFT:  2.00D  GRAD.:   181.269 HEAT:  349.7655
 CYCLE:    49 TIME:   0.078 TIME LEFT:  2.00D  GRAD.:   187.810 HEAT:  347.3164
 CYCLE:    50 TIME:   0.172 TIME LEFT:  2.00D  GRAD.:   103.080 HEAT:  343.7758
 CYCLE:    51 TIME:   0.168 TIME LEFT:  2.00D  GRAD.:    83.267 HEAT:  342.6889
 CYCLE:    52 TIME:   0.082 TIME LEFT:  2.00D  GRAD.:    59.774 HEAT:  341.3704
 CYCLE:    53 TIME:   0.082 TIME LEFT:  2.00D  GRAD.:    91.390 HEAT:  340.9676
 CYCLE:    54 TIME:   0.070 TIME LEFT:  2.00D  GRAD.:    35.543 HEAT:  338.8250
 CYCLE:    55 TIME:   0.066 TIME LEFT:  2.00D  GRAD.:    79.995 HEAT:  337.2029
 CYCLE:    56 TIME:   0.066 TIME LEFT:  2.00D  GRAD.:    66.166 HEAT:  333.7577
 CYCLE:    57 TIME:   0.070 TIME LEFT:  2.00D  GRAD.:   154.498 HEAT:  331.5470
 CYCLE:    58 TIME:   0.074 TIME LEFT:  2.00D  GRAD.:   118.833 HEAT:  327.0287
 CYCLE:    59 TIME:   0.191 TIME LEFT:  2.00D  GRAD.:   169.570 HEAT:  326.2846
 CYCLE:    60 TIME:   0.066 TIME LEFT:  2.00D  GRAD.:   103.583 HEAT:  324.3552
 CYCLE:    61 TIME:   0.129 TIME LEFT:  2.00D  GRAD.:    75.732 HEAT:  322.7845
 CYCLE:    62 TIME:   0.059 TIME LEFT:  2.00D  GRAD.:    74.800 HEAT:  322.2556
 CYCLE:    63 TIME:   0.059 TIME LEFT:  2.00D  GRAD.:    68.043 HEAT:  321.1798
 CYCLE:    64 TIME:   0.059 TIME LEFT:  2.00D  GRAD.:    66.706 HEAT:  320.4564
 CYCLE:    65 TIME:   0.059 TIME LEFT:  2.00D  GRAD.:    53.155 HEAT:  318.9490
 CYCLE:    66 TIME:   0.059 TIME LEFT:  2.00D  GRAD.:    79.873 HEAT:  318.1093
 CYCLE:    67 TIME:   0.066 TIME LEFT:  2.00D  GRAD.:    56.652 HEAT:  316.1639
 CYCLE:    68 TIME:   0.062 TIME LEFT:  2.00D  GRAD.:    98.271 HEAT:  315.7258
 CYCLE:    69 TIME:   0.066 TIME LEFT:  2.00D  GRAD.:    79.576 HEAT:  312.9760
 CYCLE:    70 TIME:   0.176 TIME LEFT:  2.00D  GRAD.:    95.376 HEAT:  312.7090
 CYCLE:    71 TIME:   0.059 TIME LEFT:  2.00D  GRAD.:    58.528 HEAT:  311.3873
 CYCLE:    72 TIME:   0.113 TIME LEFT:  2.00D  GRAD.:    68.157 HEAT:  311.2152
 CYCLE:    73 TIME:   0.051 TIME LEFT:  2.00D  GRAD.:    30.900 HEAT:  310.3811
 CYCLE:    74 TIME:   0.059 TIME LEFT:  2.00D  GRAD.:    62.689 HEAT:  310.0415
 CYCLE:    75 TIME:   0.051 TIME LEFT:  2.00D  GRAD.:    19.731 HEAT:  309.0890
 CYCLE:    76 TIME:   0.055 TIME LEFT:  2.00D  GRAD.:    45.816 HEAT:  308.1472
 CYCLE:    77 TIME:   0.059 TIME LEFT:  2.00D  GRAD.:    22.143 HEAT:  306.2884
 CYCLE:    78 TIME:   0.062 TIME LEFT:  2.00D  GRAD.:    48.122 HEAT:  303.5664
 CYCLE:    79 TIME:   0.059 TIME LEFT:  2.00D  GRAD.:    53.445 HEAT:  301.0472
 CYCLE:    80 TIME:   0.062 TIME LEFT:  2.00D  GRAD.:    85.240 HEAT:  299.3667
 CYCLE:    81 TIME:   0.062 TIME LEFT:  2.00D  GRAD.:    68.146 HEAT:  296.8637
 CYCLE:    82 TIME:   0.062 TIME LEFT:  2.00D  GRAD.:    59.060 HEAT:  294.5236
 CYCLE:    83 TIME:   0.059 TIME LEFT:  2.00D  GRAD.:    42.577 HEAT:  291.7176
 CYCLE:    84 TIME:   0.059 TIME LEFT:  2.00D  GRAD.:    56.494 HEAT:  290.0290
 CYCLE:    85 TIME:   0.059 TIME LEFT:  2.00D  GRAD.:    37.984 HEAT:  287.5652
 CYCLE:    86 TIME:   0.059 TIME LEFT:  2.00D  GRAD.:    65.537 HEAT:  286.2169
 CYCLE:    87 TIME:   0.059 TIME LEFT:  2.00D  GRAD.:    41.884 HEAT:  283.3571
 CYCLE:    88 TIME:   0.055 TIME LEFT:  2.00D  GRAD.:    68.426 HEAT:  282.0058
 CYCLE:    89 TIME:   0.055 TIME LEFT:  2.00D  GRAD.:    41.579 HEAT:  279.4019
 CYCLE:    90 TIME:   0.062 TIME LEFT:  2.00D  GRAD.:   100.383 HEAT:  279.0132
 CYCLE:    91 TIME:   0.055 TIME LEFT:  2.00D  GRAD.:    35.221 HEAT:  275.6850
 CYCLE:    92 TIME:   0.062 TIME LEFT:  2.00D  GRAD.:    68.441 HEAT:  274.7988
 CYCLE:    93 TIME:   0.055 TIME LEFT:  2.00D  GRAD.:    37.835 HEAT:  272.4145
 CYCLE:    94 TIME:   0.055 TIME LEFT:  2.00D  GRAD.:    60.481 HEAT:  271.2568
 CYCLE:    95 TIME:   0.059 TIME LEFT:  2.00D  GRAD.:    26.124 HEAT:  269.1390
 CYCLE:    96 TIME:   0.070 TIME LEFT:  2.00D  GRAD.:    69.377 HEAT:  268.0237
 CYCLE:    97 TIME:   0.059 TIME LEFT:  2.00D  GRAD.:    35.365 HEAT:  265.7621
 CYCLE:    98 TIME:   0.055 TIME LEFT:  2.00D  GRAD.:    67.937 HEAT:  264.4086
 CYCLE:    99 TIME:   0.055 TIME LEFT:  2.00D  GRAD.:    39.072 HEAT:  262.3910
 CYCLE:   100 TIME:   0.059 TIME LEFT:  2.00D  GRAD.:    98.450 HEAT:  261.1268
 CYCLE:   101 TIME:   0.055 TIME LEFT:  2.00D  GRAD.:    50.129 HEAT:  259.3112
 CYCLE:   102 TIME:   0.059 TIME LEFT:  2.00D  GRAD.:    51.511 HEAT:  257.4044
 CYCLE:   103 TIME:   0.055 TIME LEFT:  2.00D  GRAD.:    43.138 HEAT:  255.6682
 CYCLE:   104 TIME:   0.059 TIME LEFT:  2.00D  GRAD.:    45.867 HEAT:  254.0536
 CYCLE:   105 TIME:   0.055 TIME LEFT:  2.00D  GRAD.:    47.635 HEAT:  252.6263
 CYCLE:   106 TIME:   0.059 TIME LEFT:  2.00D  GRAD.:    25.807 HEAT:  251.0531
 CYCLE:   107 TIME:   0.055 TIME LEFT:  2.00D  GRAD.:    30.142 HEAT:  249.6846
 CYCLE:   108 TIME:   0.059 TIME LEFT:  2.00D  GRAD.:    31.199 HEAT:  248.2239
 CYCLE:   109 TIME:   0.055 TIME LEFT:  2.00D  GRAD.:    31.406 HEAT:  246.7294
 CYCLE:   110 TIME:   0.059 TIME LEFT:  2.00D  GRAD.:    33.399 HEAT:  245.2427
 CYCLE:   111 TIME:   0.059 TIME LEFT:  2.00D  GRAD.:    35.690 HEAT:  243.8472
 CYCLE:   112 TIME:   0.055 TIME LEFT:  2.00D  GRAD.:    26.001 HEAT:  242.5604
 CYCLE:   113 TIME:   0.059 TIME LEFT:  2.00D  GRAD.:    36.181 HEAT:  241.4043
 CYCLE:   114 TIME:   0.055 TIME LEFT:  2.00D  GRAD.:    32.728 HEAT:  240.0360
 CYCLE:   115 TIME:   0.059 TIME LEFT:  2.00D  GRAD.:    28.047 HEAT:  238.8776
 CYCLE:   116 TIME:   0.059 TIME LEFT:  2.00D  GRAD.:    17.325 HEAT:  237.5385
 CYCLE:   117 TIME:   0.055 TIME LEFT:  2.00D  GRAD.:    28.501 HEAT:  236.4038
 CYCLE:   118 TIME:   0.055 TIME LEFT:  2.00D  GRAD.:    17.894 HEAT:  235.2568
 CYCLE:   119 TIME:   0.059 TIME LEFT:  2.00D  GRAD.:    21.551 HEAT:  234.1869
 CYCLE:   120 TIME:   0.055 TIME LEFT:  2.00D  GRAD.:    18.091 HEAT:  233.1465
 CYCLE:   121 TIME:   0.055 TIME LEFT:  2.00D  GRAD.:    18.117 HEAT:  232.1410
 CYCLE:   122 TIME:   0.059 TIME LEFT:  2.00D  GRAD.:    13.380 HEAT:  231.1493
 CYCLE:   123 TIME:   0.055 TIME LEFT:  2.00D  GRAD.:    16.011 HEAT:  230.1575
 CYCLE:   124 TIME:   0.055 TIME LEFT:  2.00D  GRAD.:    12.541 HEAT:  229.2130
 CYCLE:   125 TIME:   0.055 TIME LEFT:  2.00D  GRAD.:    13.634 HEAT:  228.3048
 CYCLE:   126 TIME:   0.051 TIME LEFT:  2.00D  GRAD.:    15.810 HEAT:  227.4491
 CYCLE:   127 TIME:   0.055 TIME LEFT:  2.00D  GRAD.:    16.917 HEAT:  226.6050
 CYCLE:   128 TIME:   0.051 TIME LEFT:  2.00D  GRAD.:    14.596 HEAT:  225.7609
 CYCLE:   129 TIME:   0.051 TIME LEFT:  2.00D  GRAD.:    13.476 HEAT:  224.9350
 CYCLE:   130 TIME:   0.055 TIME LEFT:  2.00D  GRAD.:    19.963 HEAT:  224.1529
 CYCLE:   131 TIME:   0.051 TIME LEFT:  2.00D  GRAD.:    12.184 HEAT:  223.3307
 CYCLE:   132 TIME:   0.051 TIME LEFT:  2.00D  GRAD.:    12.044 HEAT:  222.5445
 CYCLE:   133 TIME:   0.055 TIME LEFT:  2.00D  GRAD.:    10.599 HEAT:  221.7807
 CYCLE:   134 TIME:   0.051 TIME LEFT:  2.00D  GRAD.:    11.338 HEAT:  221.0227
 CYCLE:   135 TIME:   0.051 TIME LEFT:  2.00D  GRAD.:     7.741 HEAT:  220.2741
 CYCLE:   136 TIME:   0.051 TIME LEFT:  2.00D  GRAD.:     7.850 HEAT:  219.5290
 CYCLE:   137 TIME:   0.051 TIME LEFT:  2.00D  GRAD.:     8.555 HEAT:  218.8116
 CYCLE:   138 TIME:   0.051 TIME LEFT:  2.00D  GRAD.:    11.215 HEAT:  218.1388
 CYCLE:   139 TIME:   0.055 TIME LEFT:  2.00D  GRAD.:    12.999 HEAT:  217.4325
 CYCLE:   140 TIME:   0.055 TIME LEFT:  2.00D  GRAD.:     8.323 HEAT:  216.7424
 CYCLE:   141 TIME:   0.051 TIME LEFT:  2.00D  GRAD.:     6.927 HEAT:  216.0819
 CYCLE:   142 TIME:   0.051 TIME LEFT:  2.00D  GRAD.:    10.330 HEAT:  215.4384
 CYCLE:   143 TIME:   0.051 TIME LEFT:  2.00D  GRAD.:     5.804 HEAT:  214.7931
 CYCLE:   144 TIME:   0.051 TIME LEFT:  2.00D  GRAD.:     6.434 HEAT:  214.1678
 CYCLE:   145 TIME:   0.051 TIME LEFT:  2.00D  GRAD.:     4.089 HEAT:  213.5637
 CYCLE:   146 TIME:   0.051 TIME LEFT:  2.00D  GRAD.:     4.601 HEAT:  212.9736
 CYCLE:   147 TIME:   0.047 TIME LEFT:  2.00D  GRAD.:     5.240 HEAT:  212.3982
 CYCLE:   148 TIME:   0.051 TIME LEFT:  2.00D  GRAD.:     4.517 HEAT:  211.8331
 CYCLE:   149 TIME:   0.047 TIME LEFT:  2.00D  GRAD.:     4.855 HEAT:  211.2782
 CYCLE:   150 TIME:   0.051 TIME LEFT:  2.00D  GRAD.:     4.311 HEAT:  210.7360
 CYCLE:   151 TIME:   0.047 TIME LEFT:  2.00D  GRAD.:     4.087 HEAT:  210.2013
 CYCLE:   152 TIME:   0.051 TIME LEFT:  2.00D  GRAD.:     4.118 HEAT:  209.6770
 CYCLE:   153 TIME:   0.047 TIME LEFT:  2.00D  GRAD.:     3.884 HEAT:  209.1613
 CYCLE:   154 TIME:   0.051 TIME LEFT:  2.00D  GRAD.:     2.753 HEAT:  208.6506
 CYCLE:   155 TIME:   0.059 TIME LEFT:  2.00D  GRAD.:     4.000 HEAT:  208.1444
 CYCLE:   156 TIME:   0.051 TIME LEFT:  2.00D  GRAD.:     4.245 HEAT:  208.1316
 CYCLE:   157 TIME:   0.047 TIME LEFT:  2.00D  GRAD.:     3.395 HEAT:  208.1220
 CYCLE:   158 TIME:   0.051 TIME LEFT:  2.00D  GRAD.:     3.419 HEAT:  208.1112
 CYCLE:   159 TIME:   0.051 TIME LEFT:  2.00D  GRAD.:     2.552 HEAT:  208.1065
 CYCLE:   160 TIME:   0.105 TIME LEFT:  2.00D  GRAD.:     2.519 HEAT:  208.0611
 CYCLE:   161 TIME:   0.055 TIME LEFT:  2.00D  GRAD.:     6.092 HEAT:  208.0554
 CYCLE:   162 TIME:   0.047 TIME LEFT:  2.00D  GRAD.:     5.358 HEAT:  208.0454
 CYCLE:   163 TIME:   0.047 TIME LEFT:  2.00D  GRAD.:     3.021 HEAT:  208.0377
 CYCLE:   164 TIME:   0.051 TIME LEFT:  2.00D  GRAD.:     4.582 HEAT:  208.0279
 CYCLE:   165 TIME:   0.047 TIME LEFT:  2.00D  GRAD.:     2.779 HEAT:  208.0236
 CYCLE:   166 TIME:   0.055 TIME LEFT:  2.00D  GRAD.:     8.327 HEAT:  208.0179
 CYCLE:   167 TIME:   0.047 TIME LEFT:  2.00D  GRAD.:     4.584 HEAT:  208.0092
 CYCLE:   168 TIME:   0.051 TIME LEFT:  2.00D  GRAD.:     3.909 HEAT:  207.9908
 CYCLE:   169 TIME:   0.055 TIME LEFT:  2.00D  GRAD.:     1.877 HEAT:  207.9922
 CYCLE:   170 TIME:   0.051 TIME LEFT:  2.00D  GRAD.:     2.109 HEAT:  207.9859
 CYCLE:   171 TIME:   0.047 TIME LEFT:  2.00D  GRAD.:     1.956 HEAT:  207.9791
 CYCLE:   172 TIME:   0.055 TIME LEFT:  2.00D  GRAD.:     3.037 HEAT:  207.9633
 CYCLE:   173 TIME:   0.051 TIME LEFT:  2.00D  GRAD.:     2.860 HEAT:  207.9190
 CYCLE:   174 TIME:   0.047 TIME LEFT:  2.00D  GRAD.:     3.871 HEAT:  207.9119
 CYCLE:   175 TIME:   0.047 TIME LEFT:  2.00D  GRAD.:     2.126 HEAT:  207.9048
 CYCLE:   176 TIME:   0.059 TIME LEFT:  2.00D  GRAD.:     2.824 HEAT:  207.8942
 CYCLE:   177 TIME:   0.352 TIME LEFT:  2.00D  GRAD.:     2.632 HEAT:  207.8926
 CYCLE:   178 TIME:   0.051 TIME LEFT:  2.00D  GRAD.:     2.513 HEAT:  207.7904
 CYCLE:   179 TIME:   0.051 TIME LEFT:  2.00D  GRAD.:     2.901 HEAT:  207.5918
 CYCLE:   180 TIME:   0.055 TIME LEFT:  2.00D  GRAD.:    13.151 HEAT:  207.2119
 CYCLE:   181 TIME:   0.047 TIME LEFT:  2.00D  GRAD.:     4.594 HEAT:  206.7153
 CYCLE:   182 TIME:   0.051 TIME LEFT:  2.00D  GRAD.:     9.118 HEAT:  206.2827
 CYCLE:   183 TIME:   0.047 TIME LEFT:  2.00D  GRAD.:     5.582 HEAT:  205.8051
 CYCLE:   184 TIME:   0.051 TIME LEFT:  2.00D  GRAD.:     9.092 HEAT:  205.3606
 CYCLE:   185 TIME:   0.047 TIME LEFT:  2.00D  GRAD.:     2.250 HEAT:  204.9031
 CYCLE:   186 TIME:   0.059 TIME LEFT:  2.00D  GRAD.:     1.934 HEAT:  204.4626
 CYCLE:   187 TIME:   0.051 TIME LEFT:  2.00D  GRAD.:     2.456 HEAT:  204.4564
 CYCLE:   188 TIME:   0.047 TIME LEFT:  2.00D  GRAD.:     1.931 HEAT:  204.4503
 CYCLE:   189 TIME:   0.051 TIME LEFT:  2.00D  GRAD.:     2.290 HEAT:  204.4381
 CYCLE:   190 TIME:   0.047 TIME LEFT:  2.00D  GRAD.:     2.062 HEAT:  204.4358
 CYCLE:   191 TIME:   0.051 TIME LEFT:  2.00D  GRAD.:     1.507 HEAT:  204.4345
 CYCLE:   192 TIME:   0.047 TIME LEFT:  2.00D  GRAD.:     1.294 HEAT:  204.4320
 CYCLE:   193 TIME:   0.059 TIME LEFT:  2.00D  GRAD.:     1.254 HEAT:  204.4297
 CYCLE:   194 TIME:   0.238 TIME LEFT:  2.00D  GRAD.:     4.409 HEAT:  204.4312
 CYCLE:   195 TIME:   0.047 TIME LEFT:  2.00D  GRAD.:     1.600 HEAT:  204.3419
 CYCLE:   196 TIME:   0.051 TIME LEFT:  2.00D  GRAD.:    10.366 HEAT:  204.3462
 CYCLE:   197 TIME:   0.047 TIME LEFT:  2.00D  GRAD.:     5.581 HEAT:  204.3405
 CYCLE:   198 TIME:   0.047 TIME LEFT:  2.00D  GRAD.:     1.679 HEAT:  204.3341
 CYCLE:   199 TIME:   0.051 TIME LEFT:  2.00D  GRAD.:     2.498 HEAT:  204.3321
 CYCLE:   200 TIME:   0.047 TIME LEFT:  2.00D  GRAD.:     1.485 HEAT:  204.3301
 CYCLE:   201 TIME:   0.051 TIME LEFT:  2.00D  GRAD.:     1.439 HEAT:  204.3264
 CYCLE:   202 TIME:   0.125 TIME LEFT:  2.00D  GRAD.:     1.654 HEAT:  204.2532
 CYCLE:   203 TIME:   0.047 TIME LEFT:  2.00D  GRAD.:     1.824 HEAT:  204.1087
 CYCLE:   204 TIME:   0.055 TIME LEFT:  2.00D  GRAD.:     2.451 HEAT:  204.1027
 CYCLE:   205 TIME:   0.051 TIME LEFT:  2.00D  GRAD.:     2.294 HEAT:  204.0992
 CYCLE:   206 TIME:   0.055 TIME LEFT:  2.00D  GRAD.:     3.104 HEAT:  204.0989
 CYCLE:   207 TIME:   0.055 TIME LEFT:  2.00D  GRAD.:     1.727 HEAT:  204.0937
 CYCLE:   208 TIME:   0.055 TIME LEFT:  2.00D  GRAD.:     1.405 HEAT:  204.0912
 CYCLE:   209 TIME:   0.051 TIME LEFT:  2.00D  GRAD.:     1.348 HEAT:  204.0881
 CYCLE:   210 TIME:   0.051 TIME LEFT:  2.00D  GRAD.:     1.893 HEAT:  204.0840
 CYCLE:   211 TIME:   0.051 TIME LEFT:  2.00D  GRAD.:     1.142 HEAT:  204.0819
 CYCLE:   212 TIME:   0.051 TIME LEFT:  2.00D  GRAD.:     1.245 HEAT:  204.0798
 CYCLE:   213 TIME:   0.055 TIME LEFT:  2.00D  GRAD.:     1.370 HEAT:  204.0727
 CYCLE:   214 TIME:   0.059 TIME LEFT:  2.00D  GRAD.:     7.283 HEAT:  204.0695
 CYCLE:   215 TIME:   0.047 TIME LEFT:  2.00D  GRAD.:     2.288 HEAT:  204.0580
 CYCLE:   216 TIME:   0.055 TIME LEFT:  2.00D  GRAD.:     2.736 HEAT:  204.0481
 CYCLE:   217 TIME:   0.047 TIME LEFT:  2.00D  GRAD.:     2.305 HEAT:  204.0408
 CYCLE:   218 TIME:   0.051 TIME LEFT:  2.00D  GRAD.:     1.787 HEAT:  204.0310
 CYCLE:   219 TIME:   0.051 TIME LEFT:  2.00D  GRAD.:     2.041 HEAT:  204.0185
 CYCLE:   220 TIME:   0.070 TIME LEFT:  2.00D  GRAD.:     1.429 HEAT:  203.9717
 CYCLE:   221 TIME:   0.070 TIME LEFT:  2.00D  GRAD.:     1.353 HEAT:  203.8798
 CYCLE:   222 TIME:   0.074 TIME LEFT:  2.00D  GRAD.:     1.858 HEAT:  203.6991
 CYCLE:   223 TIME:   0.070 TIME LEFT:  2.00D  GRAD.:     2.110 HEAT:  203.3456
 CYCLE:   224 TIME:   0.074 TIME LEFT:  2.00D  GRAD.:     2.023 HEAT:  202.9226
 CYCLE:   225 TIME:   0.059 TIME LEFT:  2.00D  GRAD.:     1.779 HEAT:  202.5080
 CYCLE:   226 TIME:   0.051 TIME LEFT:  2.00D  GRAD.:     1.461 HEAT:  202.1004
 CYCLE:   227 TIME:   0.059 TIME LEFT:  2.00D  GRAD.:     1.383 HEAT:  201.6998
 CYCLE:   228 TIME:   0.055 TIME LEFT:  2.00D  GRAD.:     1.439 HEAT:  201.3063
 CYCLE:   229 TIME:   0.055 TIME LEFT:  2.00D  GRAD.:     1.531 HEAT:  200.9193
 CYCLE:   230 TIME:   0.055 TIME LEFT:  2.00D  GRAD.:     1.592 HEAT:  200.5387
 CYCLE:   231 TIME:   0.051 TIME LEFT:  2.00D  GRAD.:     1.948 HEAT:  200.1648
 CYCLE:   232 TIME:   0.055 TIME LEFT:  2.00D  GRAD.:     1.363 HEAT:  199.7970
 CYCLE:   233 TIME:   0.055 TIME LEFT:  2.00D  GRAD.:     2.322 HEAT:  199.4346
 CYCLE:   234 TIME:   0.051 TIME LEFT:  2.00D  GRAD.:     2.254 HEAT:  199.0799
 CYCLE:   235 TIME:   0.051 TIME LEFT:  2.00D  GRAD.:     2.560 HEAT:  198.7297
 CYCLE:   236 TIME:   0.055 TIME LEFT:  2.00D  GRAD.:     2.616 HEAT:  198.3855
 CYCLE:   237 TIME:   0.055 TIME LEFT:  2.00D  GRAD.:     1.938 HEAT:  198.0455
 CYCLE:   238 TIME:   0.051 TIME LEFT:  2.00D  GRAD.:     1.894 HEAT:  197.7115
 CYCLE:   239 TIME:   0.055 TIME LEFT:  2.00D  GRAD.:     1.708 HEAT:  197.3816
 CYCLE:   240 TIME:   0.051 TIME LEFT:  2.00D  GRAD.:     1.183 HEAT:  197.0575
 CYCLE:   241 TIME:   0.055 TIME LEFT:  2.00D  GRAD.:     1.827 HEAT:  196.7385
 CYCLE:   242 TIME:   0.055 TIME LEFT:  2.00D  GRAD.:     1.549 HEAT:  196.4247
 CYCLE:   243 TIME:   0.055 TIME LEFT:  2.00D  GRAD.:     1.550 HEAT:  196.1155
 CYCLE:   244 TIME:   0.055 TIME LEFT:  2.00D  GRAD.:     1.527 HEAT:  195.8111
 CYCLE:   245 TIME:   0.051 TIME LEFT:  2.00D  GRAD.:     1.338 HEAT:  195.5114
 CYCLE:   246 TIME:   0.055 TIME LEFT:  2.00D  GRAD.:     1.777 HEAT:  195.2161
 CYCLE:   247 TIME:   0.055 TIME LEFT:  2.00D  GRAD.:     1.155 HEAT:  194.9250
 CYCLE:   248 TIME:   0.055 TIME LEFT:  2.00D  GRAD.:     1.468 HEAT:  194.6380
 CYCLE:   249 TIME:   0.051 TIME LEFT:  2.00D  GRAD.:     1.196 HEAT:  194.3553
 CYCLE:   250 TIME:   0.074 TIME LEFT:  2.00D  GRAD.:     1.237 HEAT:  194.0762
 CYCLE:   251 TIME:   0.070 TIME LEFT:  2.00D  GRAD.:     1.099 HEAT:  193.8012
 CYCLE:   252 TIME:   0.074 TIME LEFT:  2.00D  GRAD.:     1.029 HEAT:  193.5301
 CYCLE:   253 TIME:   0.070 TIME LEFT:  2.00D  GRAD.:     1.212 HEAT:  193.2624
 CYCLE:   254 TIME:   0.074 TIME LEFT:  2.00D  GRAD.:     1.395 HEAT:  192.9985
 CYCLE:   255 TIME:   0.070 TIME LEFT:  2.00D  GRAD.:     1.465 HEAT:  192.7373
 CYCLE:   256 TIME:   0.074 TIME LEFT:  2.00D  GRAD.:     1.132 HEAT:  192.4795
 CYCLE:   257 TIME:   0.070 TIME LEFT:  2.00D  GRAD.:     1.061 HEAT:  192.2244
 CYCLE:   258 TIME:   0.074 TIME LEFT:  2.00D  GRAD.:     1.053 HEAT:  191.9726
 CYCLE:   259 TIME:   0.074 TIME LEFT:  2.00D  GRAD.:     0.974 HEAT:  191.7237

     GRADIENT =  0.97433  IS LESS THAN CUTOFF =  1.00000



 -------------------------------------------------------------------------------
 EF PM7 XYZ HESSIAN TRIPLET UHF CHARGE=-3
 1002_N_0_3



     GEOMETRY OPTIMISED USING EIGENVECTOR FOLLOWING (EF).     
     SCF FIELD WAS ACHIEVED                                   


                              PM7 CALCULATION
                                                       MOPAC2016 (Version: 16.299L)
                                                       Thu Nov 10 15:54:57 2016
                                                       No. of days remaining = 350




          FINAL HEAT OF FORMATION =        191.72362 KCAL/MOL =     802.17165 KJ/MOL


          TOTAL ENERGY            =      -5069.61203 EV
          ELECTRONIC ENERGY       =     -28531.44892 EV  POINT GROUP:     C1  
          CORE-CORE REPULSION     =      23461.83688 EV
          COSMO AREA              =        532.33 SQUARE ANGSTROMS
          COSMO VOLUME            =        547.79 CUBIC ANGSTROMS

          GRADIENT NORM           =          0.97433
          IONIZATION POTENTIAL    =          3.774830 EV
          ALPHA SOMO LUMO (EV)    =         -3.775  4.511
          BETA  SOMO LUMO (EV)    =         -3.778  1.745
          NO. OF ALPHA ELECTRONS  =         79
          NO. OF BETA  ELECTRONS  =         77
          MOLECULAR WEIGHT        =        480.0879

          MOLECULAR DIMENSIONS (Angstroms)

            Atom       Atom       Distance
            N    15    N    27    28.55128
            N    22    N    14    26.96627
            N    21    N    13     6.28963


          SCF CALCULATIONS        =        297
 
          WALL-CLOCK TIME         =         18.832 SECONDS
          COMPUTATION TIME        =  1 MINUTE AND 13.207 SECONDS




   ATOM   CHEMICAL          X               Y               Z
  NUMBER   SYMBOL      (ANGSTROMS)     (ANGSTROMS)     (ANGSTROMS)
 
     1      Ni         -0.18297537  *   7.37855041  *   0.25764023  *
     2       C         -1.81088911  *   8.49296903  *   0.83833252  *
     3       C         -2.42127578  *   7.47648949  *   1.61353555  *
     4       C         -1.98788313  *   8.51249857  *  -0.57018687  *
     5       C         -1.51739566  *   9.70230347  *   1.51167002  *
     6       N         -1.30416773  *  10.68782265  *   2.08723963  *
     7       N         -2.16340920  *   8.55860103  *  -1.72216414  *
     8       N         -2.95908276  *   6.69226526  *   2.28282697  *
     9       C        -14.43240784  * -11.77461457  *  -0.88294763  *
    10       C        -13.88252589  * -12.72521180  *  -1.73880440  *
    11       C        -15.07211881  * -10.65447325  *  -1.40741284  *
    12       C        -14.35014770  * -11.94689581  *   0.49628029  *
    13       N        -14.28660745  * -12.09251605  *   1.65020350  *
    14       N        -15.61126367  *  -9.72016810  *  -1.84669480  *
    15       N        -13.42730355  * -13.52147935  *  -2.45669726  *
    16       C         14.73539128  * -10.44953301  *   1.69442719  *
    17       C         15.56767104  *  -9.42118101  *   2.12828958  *
    18       C         14.51174770  * -10.63696385  *   0.33290381  *
    19       C         14.13059089  * -11.29422729  *   2.62146139  *
    20       N         13.62798022  * -12.00374037  *   3.39638616  *
    21       N         14.32808771  * -10.79642967  *  -0.80613151  *
    22       N         16.26755898  *  -8.56365657  *   2.49146459  *
    23       C          1.54132281  *   8.46345358  *  -0.05094509  *
    24       C          2.10048275  *   7.65267722  *  -1.07024230  *
    25       C          1.70602778  *   8.09242848  *   1.30898545  *
    26       C          1.33524812  *   9.82399860  *  -0.37806615  *
    27       N          1.19212861  *  10.93796384  *  -0.67247322  *
    28       N          1.86864462  *   7.80343684  *   2.42752108  *
    29       N          2.60250101  *   7.04140577  *  -1.92165348  *
    30       S         -0.24545322  *   5.21712082  *  -0.03988278  *
    31       C          0.09805052  *   4.37363988  *   1.59304076  *
    32       C         -1.12545173  *   3.60185758  *   2.06485411  *
    33       H         -0.91261834  *   3.04982002  *   2.98593244  *
    34       H         -1.46783390  *   2.87948812  *   1.31365540  *
    35       H         -1.97418927  *   4.27203909  *   2.27278505  *
    36       H          0.43041393  *   5.08707491  *   2.36225314  *
    37       H          0.94358243  *   3.69040169  *   1.39906492  *

                             CARTESIAN COORDINATES

   1   Ni       -0.182975373     7.378550406     0.257640228
   2    C       -1.810889115     8.492969031     0.838332525
   3    C       -2.421275782     7.476489488     1.613535548
   4    C       -1.987883129     8.512498570    -0.570186868
   5    C       -1.517395658     9.702303467     1.511670017
   6    N       -1.304167732    10.687822655     2.087239626
   7    N       -2.163409196     8.558601027    -1.722164143
   8    N       -2.959082764     6.692265257     2.282826968
   9    C      -14.432407838   -11.774614569    -0.882947631
  10    C      -13.882525891   -12.725211803    -1.738804402
  11    C      -15.072118807   -10.654473249    -1.407412845
  12    C      -14.350147704   -11.946895808     0.496280292
  13    N      -14.286607446   -12.092516054     1.650203504
  14    N      -15.611263671    -9.720168096    -1.846694804
  15    N      -13.427303552   -13.521479347    -2.456697256
  16    C       14.735391282   -10.449533005     1.694427186
  17    C       15.567671038    -9.421181013     2.128289581
  18    C       14.511747703   -10.636963847     0.332903812
  19    C       14.130590892   -11.294227290     2.621461391
  20    N       13.627980215   -12.003740373     3.396386156
  21    N       14.328087712   -10.796429669    -0.806131514
  22    N       16.267558978    -8.563656573     2.491464586
  23    C        1.541322807     8.463453581    -0.050945087
  24    C        2.100482753     7.652677225    -1.070242305
  25    C        1.706027779     8.092428481     1.308985446
  26    C        1.335248116     9.823998605    -0.378066153
  27    N        1.192128609    10.937963837    -0.672473225
  28    N        1.868644618     7.803436843     2.427521083
  29    N        2.602501013     7.041405767    -1.921653484
  30    S       -0.245453225     5.217120819    -0.039882777
  31    C        0.098050524     4.373639882     1.593040762
  32    C       -1.125451733     3.601857581     2.064854112
  33    H       -0.912618339     3.049820016     2.985932439
  34    H       -1.467833902     2.879488124     1.313655405
  35    H       -1.974189266     4.272039095     2.272785052
  36    H        0.430413926     5.087074910     2.362253140
  37    H        0.943582432     3.690401695     1.399064919


           Empirical Formula: C18 H5 N12 Ni S  =    37 atoms

    Hessian matrix from geometry optimization
  445.7024
   10.0873  765.5352
  -19.2742 -126.4471  230.1026
 -157.3961   98.4816  -59.6061 1124.8335
   92.2186  -79.2429  -14.2364  573.3333 1372.1110
   50.6062   -4.9917    2.0374 -288.6467   47.9955 1937.4125
 -104.3307  -46.9409   -2.9253 -498.5734 -334.4272  385.3974 2981.0067
  -48.0474  -19.5833   -3.6082 -250.4861 -377.1347  313.1264 2114.8126 2326.0238
   46.8323   43.8170  -12.2162  274.0721  235.8614 -361.2616-1929.2512-1552.1143 1932.6724
  -35.8614   14.2445   -6.0807 -102.2473  -37.7945   23.1745  103.8118    2.2056  -61.2565  573.0492
    1.3726  -40.1888    0.2842  -16.5518 -148.0526   41.4901  -10.1483  -22.7755   22.8138   35.7306
  429.5572
  -94.7606   30.1248   86.3325  116.7845  -82.5965 -924.0398  228.2799  155.5338 -229.9854  185.0406
 -197.2740 5705.8653
  -14.0935    0.9699   34.9894 -185.3936 -166.4402  -96.9738  -69.7379  -70.2102   15.1220  -36.5344
   16.9276  -45.0836  784.3283
   49.2863  -42.6327  105.3597 -323.0705 -505.2892 -227.6896 -128.0496 -142.3511   -5.9978 -128.6663
    6.4639 -103.4380 1284.1404 3763.9909
    9.5291  -28.0905   45.5532 -124.2497 -187.4255 -304.1749  -63.9870  -43.3218  -16.9519  -70.7728
  -19.9683  -68.0445  817.7641 2157.4853 1906.0004
  -41.8684   -0.4246  -12.6481   14.0073  -71.1900  -26.7150   32.1470    3.0220   -8.3613   19.8971
    0.2326  -25.6460 -451.1009 -916.1849 -611.7417  485.8442
  -28.4126  -28.3642  -68.4788   24.4685 -158.8569 -171.2575   -6.9353  -46.7385   47.6683  122.0268
   -6.9712   36.3851-1015.5572-2970.5775-1814.8829  955.2678 3160.0417
    7.5256   25.6629  -51.3601   35.1411  -96.4884  -47.7993   -0.6052  -40.8440   35.7719   84.2595
  -46.4263  117.4935 -655.6904-1730.0107-1404.7138  596.8694 1795.9133 1414.7352
  -33.1000  -16.3089    2.2378   10.4525   -3.2034  -62.6173  -29.9997  -10.4487   47.1154 -330.2756
    1.0360 -327.9143   -1.5908   37.9048    5.7244  -14.2047  -15.8267  -66.4363  386.6659
   -8.1051  -14.1173    0.2824  -12.7286   30.3151  -13.9462   12.7260    1.8006   -1.8346  -10.7356
 -171.5413  122.9610  -19.8216  -60.4202  -39.1408   39.9689   33.9997   46.5240    9.1895  190.1597
   32.9412   30.7055 -124.2139  -42.5614   41.0303 -221.8099 -192.0644 -127.8947  114.9030 -202.8352
  159.3859-4490.4865  -22.6267  -79.8464 -121.5862  101.4824  134.5111   -7.9320  307.9500 -112.5810
 4723.6837
   39.6341   81.5068   14.8438  -33.5337  -76.3226    8.0993-2216.8210-1688.0086 1510.4999 -115.6664
  -17.8845 -194.6611   43.7699   98.2483   38.2261   -6.9845  -41.3914   -7.2801   48.0875  -18.3595
  192.2283 2201.3435
   27.5893   35.7795   13.1039 -101.0373  -46.8519    4.6358-1676.9044-1701.9336 1236.6086  -32.4006
    2.4069  -54.8723   11.2443   56.7427   12.1970   16.7611   -4.8602    9.1192   -6.5389   11.5354
  105.2569 1722.5646 1818.2986
  -65.1854  -62.0543  -31.2022   81.4121   51.8338  -18.8735 1539.8271 1251.4808-1359.8003   88.0766
   46.1952  109.0175    1.4034  -19.3706   45.4960   26.0275  -20.9438  -34.8381  -37.4247   21.7210
  -79.9118-1480.7750-1286.4020 1405.1830
  -30.6352   13.4444    4.1293   31.1521    4.4035    7.4468   13.9523   11.1832    0.5005   50.9382
    0.2714   76.4781    3.5337    6.9249    7.4847    5.8794   -7.3829  -10.6527  -31.4435    1.5687
  -72.7831  -20.7444    1.3961    3.1213  873.1296
    8.7060  -47.0965  -11.8944   -0.2624   34.8542  -83.2074    4.0327  -10.0289    8.9314   33.1090
   16.4456 -125.6925  -26.7399  -41.1522    2.0600   -8.5749   50.1887   36.8324  -42.1893   -1.8375
  157.2272  -33.1700  -34.9096   23.9024 -850.8057 1960.2400
  -29.0746   30.3187   49.0433  -88.2099  -34.7391    1.9912   74.1818    8.8039  -60.4812    9.0352
  -37.2178  103.8612  -44.0748    1.9953   -9.8503   50.3986   -4.0378   -0.8270    3.8200   35.2969
  -93.2398  -20.8899    1.3178   21.8087  -65.3538   42.9913 2211.7338
   58.9549  -62.5717  -62.3722   43.8071   52.9176 -162.7189 -131.7246  -48.8046   95.0535   26.8579
   12.8256   58.5839  -15.0359  -70.2401  -25.3820   19.3566   76.8978   36.2587  -36.1515  -19.8903
    6.6062   43.5839   19.6333  -68.9315 -320.5816  367.3295   52.2383 1608.6583
 -109.1101   78.1994  126.4835 -172.2812 -164.1068  362.9939  203.9033  138.4901 -144.0931  -56.6473
   29.0599 -115.0708   49.4927  143.3057   64.5730  -62.4776 -130.6384  -85.3067   63.4553   23.3778
  -98.2251  -48.1597  -48.6013   87.4145  296.5502 -771.4749 -151.8473-2198.3665 4416.4394
  -18.4220   42.5278    9.4698  -22.8366  -51.6372  139.4697   56.3166   49.9045  -28.9086  -36.4081
   38.4905  -52.0084  -42.2978  -57.6795  -39.1905    4.2135   35.0396   25.4669   45.7314    9.1747
  -32.2150   -1.8999    5.0438   31.2670   96.0393 -332.3442 -366.2160-1134.4446 2229.4481 1996.4176
  -14.3853   17.6269   46.9287    4.0304  -45.3208   23.4837   33.2818   82.5135    0.8172  -60.1977
   11.2008 -104.3227   32.4614   33.6560   39.3325   36.0650   16.7042    0.8377  -22.0590   25.6739
   56.5977  -30.8856 -104.5260  -28.3419 -270.6062  303.1025 -230.1125  105.5797  -64.7427  -83.2109
 2008.1140
    7.5677  -25.9662  -26.0375  -33.4129   80.1148   57.0196  -31.4932  -55.1725    9.2323  -47.9107
  -15.1284   23.0244   49.3584  104.1747   34.1787  -82.6743 -156.9065  -98.8031   86.7791  -11.2884
   -9.2860   30.5712   72.2470  -11.6790  268.4565 -786.7763  202.2550  -68.9936   26.5479   61.0728
-1803.4261 3330.5929
  -21.3721   25.2358   51.5955    5.5031  -14.1884   84.1786  157.2888  112.6458  -16.7702  -71.4789
   30.0675 -155.8893   34.3810   12.3260   36.9255   36.0061  -23.2846  -25.5007   -5.5434   34.1906
   67.2007  -99.5819 -170.6087    4.3689 -159.3582  234.7825 -351.5621  106.8847  -42.0442   -8.6526
 2060.3568-1939.7873 2990.7486
   -5.1359  -57.9437  -38.2068  -37.3150  -12.0866   85.8461  -18.7216    6.1138    2.3149  -27.7945
   14.2268  126.5943  -39.1635  -95.6065  -25.4317   42.6936  101.3069   -7.2611   43.2442  -12.6923
 -163.8540   26.9190   19.7164  -14.4261 -198.6056    0.5717   44.7815  136.3582 -205.6623   37.0560
  -87.3235   53.5874 -119.4657  820.2369
   21.8127  -16.3346   -0.8226    1.7889   28.8191   -9.6538   15.2356   13.5692   -5.1006  -21.2854
   -8.9585  -34.6945   -1.1393   40.2689    3.9423  -17.0584  -41.4770    1.0114   -0.5056   -5.0772
   59.4764  -35.6332  -13.2636  -15.6359   71.1771 -162.5387   85.9612   21.6553  -54.8264  -72.8065
  -40.2550    7.3145   12.0535  -96.3210  466.1853
   23.5704  145.1057   47.3904   37.0656  -67.9920  -93.2562   91.2064   29.1842  -83.2017   17.3123
  -28.8800 -183.4166  128.5837  252.5603  110.1414  -97.4493 -207.3975  -55.7107  -53.7398   43.0591
  251.0206   78.9306   -9.9042   53.1956   57.8736  123.7175 -961.4957 -280.4344  418.5281   33.3866
   57.6565   38.4964    5.4006 -649.9229 -495.1924 5740.9996
  -28.2712   70.3344   77.1232   -7.9237   -7.1378  -60.9302   76.8212    2.3170  -41.6418   17.6538
  -16.5345  -50.3586   44.0712  117.2679   16.2158  -34.1041  -95.7477   -1.8043  -50.2283    9.7524
   93.5205  -35.0352   -8.6684   29.1817   69.4985    2.4195  125.5395 -198.4282  340.0960   26.3747
   70.2840  -55.4107  109.7426 -633.2821   42.5522  801.7135  840.0033
  -23.5724   22.5530   10.4106  -28.2034  -15.2769   44.0326  -57.0433  -30.5553   28.3947   22.5088
   -4.6697   48.2496   -4.6575    3.8825   -0.1416    2.9390    9.4813   18.5414  -15.5081    8.4870
  -74.5499   88.0639   40.7509  -38.7960   -5.4820   22.9538   44.7407  -46.7885   96.1740   30.6083
   13.0375   21.9054  -16.5163  -21.1903 -203.4273  472.7099   66.8153  291.3926
  -24.3705 -152.5048  -69.8321   43.6945  102.3991   77.9846 -197.3984  -62.5074  139.2354   18.4154
   45.9691   98.3177  -50.8113 -203.5063 -119.2106   48.2379  165.0876   66.1727   49.6495  -45.2432
 -171.8582  -54.4648   -3.5240  -83.3892   64.7834 -166.8426 -320.0178  349.0301 -548.7670 -169.0416
   28.9478  -21.0429  -12.4948  607.7957  365.5144-4507.2704 -886.3891 -448.5897 4771.8474
   11.9071  -39.8254  -51.7603   -8.7379   30.7645  -46.5657  -36.4268  -46.9450   -1.4270   42.6576
  -11.1029   97.3742  -42.3856  -35.5511  -45.9472  -23.0254   29.6904   24.4891    7.1686  -26.9086
  -37.2501    7.0104   96.0459   35.5096    3.9215   93.9862  -85.9215  -31.6200  -18.2030   43.9807
-1559.9038 1416.9974-1812.4924   89.4704   66.7680 -107.5147 -168.1944  -38.8903   60.7723 1661.5845
  -76.5364   26.0268   20.5155   47.9801  -64.0120  -30.6007   42.2634   51.3997  -12.7275  -23.3598
    8.2410   13.1029  -14.7147  -63.9012  -20.6477   50.6479   40.0816   42.6567   -2.5035   23.6932
  -31.5718  -70.1490  -97.3934   24.8197   58.1944 -119.0845   76.1919    0.6583   46.5524  -13.8285
 1339.7764-2281.4432 1511.1516   44.2809  -45.8535 -156.3034   -9.7525  -21.3051  244.0910-1330.2555
 2387.8272
   60.8713  -46.8280  -70.2229   26.2833   58.1057  -88.0729 -153.7647 -103.3233   48.9486   41.0228
  -44.5764  123.1512  -66.8487  -69.0107  -71.5134  -28.0258   72.0945   53.6460    5.3554  -41.6459
  -45.6841   83.1906  150.9049  -19.5310  -85.5039  217.9419 -108.0976   48.1890 -169.6799   -4.3617
-1872.2363 1687.1760-2533.5048   72.6397   56.7570   23.6457 -142.4126  -46.2206  -96.5955 1877.3761
-1647.2679 2688.0779
  -56.5862   51.9616   28.9403  -11.9138    0.1867  144.4115   80.5097   34.6010  -78.6280  -45.6202
   18.2937 -159.0490    3.5715   38.4641   25.3670  -38.8865  -71.5770  -34.1799   46.8228   47.5077
   97.3554  -35.5084   -4.0899   84.6822  -64.8060   79.7764  149.5393-1166.9990 1736.3797  958.6534
 -134.3978  129.3782 -106.3750  -43.3778  -50.4608  114.0831   77.3311   43.6829 -191.0081    5.4293
  -22.6666   25.2643 1315.1486
  110.5145 -127.2146 -118.7749  149.6311  101.5599 -334.8450 -182.6591  -94.5300  113.4732   55.3934
  -28.7175  183.5457  -52.3539 -119.4157  -34.1320   58.0576  114.7699   57.9530  -71.0232  -29.3974
   -8.9602   39.9404   22.1436  -81.6277  149.4419  -56.9778 -295.6825 1893.6007-3639.5229-1870.5628
  144.9251 -124.7102  108.0984  248.1276   59.5956 -450.4238 -360.3260 -163.4996  604.2821  -50.7537
  -17.3878   78.2059-1887.2760 3932.4879
   29.6090  -39.5406    2.6799   -2.3505   13.7349 -110.9141    3.1658  -12.9403  -20.3665   15.8663
   -5.5857   57.8174   38.6749   77.0346   89.1846  -25.3559  -56.8068  -52.8480  -23.7322   -8.7118
    6.3538  -18.9337  -14.8330   -7.6621   89.5205 -110.5674  -76.9412  809.8723-1624.7088-1370.6015
  131.4889 -104.6264   55.1347  -12.9203   19.6676  -23.4790   -8.0430  -15.8581   44.3633  -65.6688
   69.3356  -91.4575 -874.5949 1713.5672 1379.1205
  -10.4423  -28.8816   17.5468  -54.2015  -77.4874  -14.3525   -3.1242   -0.7419  -14.2601    3.9091
   -0.0564   -8.3958    8.9319   -3.9279    3.2725    7.1865   59.1821   31.5297    7.6639    3.8966
   17.5279   18.4688    9.6208   -9.2805  -22.1754   69.9828   -9.2365  -13.1739   -8.7978   -7.2917
   37.3025  -19.9994  -20.3839   21.5976  -22.9013   10.6384    2.9895   18.7995  -10.1725    1.7150
   -0.8602   23.4376  -25.6000   17.9505    9.6953 1159.7430
   22.7920  -27.9085    0.5520  -25.4109 -101.1363  -63.1258  -41.3441    8.1208    0.7018    6.0602
   -9.5314   30.4100   11.2352  -24.0828   24.1859   22.0567   77.2541   23.9163   15.0348    7.0588
   -3.3273    9.1437   21.6541  -16.0723  -30.0019   74.6524  -88.9159   13.3628  -82.2134  -48.8182
   44.8024  -55.0696  -32.4554   29.4569  -48.8781  -46.3456  -77.1166    3.1212  106.3797  -11.5768
    3.8490   44.4212  -36.0383   83.2586   46.8830  733.2440 1202.1898
   -5.7974    2.1033  -19.2145   44.4395   22.8980   38.3736  -29.8082  -27.2563   22.8966   30.4980
  -16.5267   -6.4327  -20.6888  -44.2389  -14.0763   13.5961   14.2131   21.8611  -39.2531    9.9496
    0.5269   19.9645   43.8616  -32.1183  -61.2527   84.0252  -47.2165   81.5116 -196.6176   10.8008
   33.8816    4.1000   27.1068   99.1280  -47.2191 -192.1874 -113.3369   -6.6760  204.2570  -12.3435
  -12.4471   18.0497  -30.6395  158.7541  -28.6250  256.1871 -121.4817 1825.7037
  -80.0262  -66.8144    5.9382  102.8846   48.6598  -13.9387  256.5253  183.1576  -45.2713   46.0068
   48.9065 -322.2791   -8.8077   47.2549   11.1805  -60.1823 -107.2156  -32.2396   47.0532    1.4656
  200.1362 -331.7936 -273.3084  238.1757   94.7269  -90.5721  -22.6480   21.1625  154.6281   15.1380
  185.6862   21.6018  404.1900  116.2410   54.6200 -370.5183 -157.5426  -72.2621  362.7452 -156.1531
  112.0943 -336.5835   43.4457 -132.1189  -32.7708 -671.0050 -459.2266 -178.3992 3678.1037
  -27.7210  -33.6732   38.7335   51.4339   86.0162  -37.2151  239.9984  136.7054  -91.1347   37.8866
   27.8061 -241.1794   28.0480   28.7095    3.2099  -33.9358  -56.9150  -16.9585   35.2653  -21.3984
  174.9606 -267.7303 -228.6386  208.3323   72.6696  -76.1740   14.9158  -18.0525   22.5459  -29.1365
   39.6519   42.8683  187.4775   -7.4278   76.9341 -116.7557  -22.2951  -68.7648   68.5349  -47.8248
   17.1425 -142.5260   10.0024  -53.7110   29.4646 -404.5921 -524.6936 -147.1711 2491.7641 2494.5256
   18.6153  -22.5642    7.8211   56.0349   68.7018  -61.8231   79.0411   37.5255  -30.9071   14.3176
   10.7008  -59.2733  -23.2804  -39.7544  -31.4750   -0.7645   31.3857   46.8733   -7.8679   -6.7155
   74.0048 -117.7778 -109.5508   94.7697   37.0121  -13.6795  -51.4895   44.1341  -13.5040  -28.3774
   37.8934  -14.3461   85.7660  -47.2784   43.6861   45.6160   55.3703  -31.2598  -56.0557  -13.9124
  -41.4312  -36.0501  -59.7699   55.0684   58.8615 -139.6554 -166.9760 -212.4731  926.4287  744.4835
  675.3682
    6.8194   18.0394  -15.8160   -3.8616    0.6406  -15.8801   -3.9152   -3.2834  -28.4878  -36.0145
  -58.3375  132.2873  -17.7394  -47.2379  -36.7402   19.4192   36.0918   56.0934   26.2338   27.2964
 -120.8550    1.3140    4.6417    2.7253   51.4495 -105.8209  -36.2487  -27.3951   16.7171    0.4095
    2.6740   56.3061  -18.3169   38.5655   48.0530  -90.9273  -55.6828  -21.5854  130.4767   13.8359
   21.8174   26.6724   14.1394   24.5815   -4.4242 -246.3509   27.4583 -223.3978  -38.6553   -7.3780
  -49.7222  905.5338
   20.2104  -38.7429    3.0062   30.7760   59.1268   13.2077  -14.4727  -14.2984    7.6684    3.2045
  -14.4892  -32.6169    7.7386   13.2707  -15.0516   -9.1854  -25.6595    2.0566  -13.7419   -9.7130
   33.4921   12.6170   16.0488   -9.4024    7.9275  -81.3785   39.9014   -3.4931   56.1477   10.4271
 -138.0765   59.4625 -151.8198  -29.3152    5.1108    7.3014   -6.0460    3.6170  -21.8123   87.7750
  -17.1988  121.3695   -0.0190  -55.7696  -15.9374  -42.8932 -170.0753  -69.8855  -41.5029  -34.1436
  -17.7431  103.7066  495.9299
   44.6996   -8.1923  -23.1187   67.5782   93.5919  -63.8431   88.0911   24.1372 -106.2302   33.5255
  -16.3982  196.2716  -33.9685  -42.6172  -32.1641    0.7673   83.5644   97.0811  -47.7007  -32.3421
 -166.5343  -94.5788  -55.8022  112.6272  118.6468 -115.1631  -71.8515 -187.8731  273.6024  106.5897
 -231.5905   42.3335 -339.9462   59.8071   78.8570  -36.8346 -104.8187  -68.4092   97.3082  230.1331
  -48.9972  317.6154  132.4364 -176.9244  -94.0057 -306.9495  -54.1012 -884.8408  -89.9788  -70.1298
   -1.8428 1423.9964  457.4689 4768.7206
   10.5642   -8.6769   -7.2634   44.9999   22.1628   -6.4411  -45.5819  -30.9021   40.3964  -16.8402
    5.3304  -33.2623    8.6071   -3.9980   -8.7083  -19.5430    5.7546   18.2670   13.3121   -4.3850
    8.0828    0.6736   -6.3459  -18.3317   -5.4157   17.8485   -1.8647   42.9724  -57.1730    2.0517
  -29.7780    8.0692  -40.7528   65.3143   12.9086 -159.9307  -50.5703  -18.1781  157.2609   21.3866
   10.6344   36.8081  -35.5516   78.6975   -8.8083 -218.5981 -124.8928  186.3876  -34.3031  -42.2354
   37.2815   39.1782    3.2136   32.6804  805.4924
   36.9811   63.1428  -50.1598   99.7119   52.7779    6.4092 -127.0095  -70.9860   70.4704  -15.7463
   -0.9965  -17.6180   22.1293   48.7215    0.4070  -14.7568  -27.8799    9.7887    7.6061  -11.9050
  -20.2867   76.0471   35.0287  -47.1328  -14.4623  -11.9682  -32.9324   30.4894  -49.5695   25.7259
 -141.9651   28.4027 -150.4575   -0.2937    9.7054 -140.2851  -26.9480  -25.4948  118.0115  120.8588
  -41.5817  186.2519  -26.3286   60.3903  -36.7395 -231.1891 -407.9702  318.4764  -54.0934  -68.1539
   73.8026   23.9722    9.6092   43.1493  823.1100 1894.3237
   21.7689  -51.1502   67.5309  -91.7708  -33.7667   -2.2923   57.2167   84.1167  -48.2732  -45.8108
   -0.6132   64.4318  -19.0774  -92.9886  -50.6597   24.5832   86.8716   47.8482   11.0537   13.3953
  -30.4188  -40.7869  -53.7172   18.8617   15.8098  -39.6972   32.1777  -56.9171   99.6971  -36.6376
  150.7187  -55.2812  206.3342  -54.5547   20.0868  174.5206   56.1872   21.3574 -182.2820 -137.2116
   23.9313 -206.9524   24.6901  -63.5453   42.5060  237.5532  287.8831 -552.4144  -23.9165   12.3566
   -2.3799   -9.1286   38.3012 -144.4990 -920.7563-1798.5454 2555.5540
   13.9858    2.4036  -21.8778    6.3238   17.3331  -65.1090  -59.1220  -11.2811   20.7005    5.5912
   -9.6945   -5.4746   -4.1283  -14.7407   13.2490    2.8824   -0.0805   -4.2263   -5.5960    0.2797
   62.9901   18.7574   24.0444  -18.8583   -9.0059   31.3575  -17.0898   39.9263 -101.9148  -71.5121
   18.8683  -18.0657    0.3532  -23.3116   19.4618   78.3410    2.7993    3.7330  -72.9503   -4.8977
   10.8520   15.2177  -55.6249  106.5437   57.1090    2.9385  -53.2855   45.0361   36.3165   28.3360
    2.8663  -20.1785  -12.7823  -32.3739 -420.0904 -493.1214  601.0261  500.4009
    5.7166  -57.4461   85.8474  -96.3116  -26.3371   35.7478   59.4340   44.3223  -21.5254    2.4145
   -4.1312   -6.1905  -12.0382  -18.7811  -21.0574   18.1929    9.8459    9.2786   -5.2671    6.8133
   26.1186   -2.4880  -15.6555  -32.3505  -26.3755   11.9932   30.7834  -43.7645   42.5915  -37.3088
  108.8899  -44.9455  112.0997  -43.8870    3.9639  196.1384   31.2594   13.9820 -190.2460 -106.1668
   18.3750 -126.2129    2.1724  -57.0310   32.3157   16.7696  -41.8486   99.7665 -117.3295  -31.6178
  -59.9513  -30.9355   33.1319   38.9701 -606.3392-1304.5356 1411.1445  508.3393 1459.3199
  -17.2592   44.1126  -26.7753   41.6882  -19.8236   -3.9518  -78.5419  -73.1568   45.0479    7.3652
   -1.6816  -30.4400   45.8796   99.2698   39.9752  -20.7683  -54.3158   -3.8923    8.0070   -6.6077
    4.7724   62.7270   48.4218  -34.8539    1.2219   10.8277  -32.9707   -5.7659   63.8846   45.2766
  -81.7778   25.1714 -131.9017   34.0817  -21.1293 -136.6656  -23.9091   -0.6078  124.7612   74.9432
    4.0937  141.1792    5.0980  -43.8796  -55.0246   11.3094  111.5919  -61.3468  105.8582   38.9603
   16.4845   33.2481  -17.5328   50.0912  698.1497 1338.3504-1758.6312 -605.2865-1413.0413 1810.8868
  -14.7107   -1.9554   -2.5950    6.4016   -4.9455   20.0865    6.3995   11.3819   12.4047   21.6379
   41.2079  -71.5541    3.0877   32.0524   29.2102  -12.9110  -59.4781  -37.7763  -10.4404  -20.4094
   46.9126  -13.3158  -17.7042   -5.2705  -31.1713   65.2498    7.2373   47.8155  -49.9175  -25.3339
  -19.3672  -25.1249   -0.7456   -3.3013  -24.0204   38.1877    5.4664   16.1487  -44.8610   24.8011
   18.0442   20.4575  -35.1323   36.1838   20.6756   25.6148  -39.9452  -24.1109   16.0861  -22.2771
   -2.6582 -521.4773  -37.7932 -948.5529  -38.0996   -7.9075  -23.2639  -17.3294   16.4186  -25.6475
  564.3359
   -6.8036    6.5652  -11.9475  -38.9197  -57.8423  -16.7275   39.8711    8.8958   -0.0913  -22.0668
    2.0366    1.2866   16.3859   13.4342    2.8652   14.8803   -4.3401  -27.3600   42.7731   -0.3298
  -15.0492   -9.6537  -13.5301   19.1482  -20.5581    8.7735   21.1117   -4.5081  -25.5117  -14.0630
   83.8310  -15.8052  115.5968   26.2368  -12.2693  -49.8214  -28.7696    9.1082   54.4453  -90.4712
   23.2380 -114.9094  -13.4686   19.6302   11.8293  -18.6669   53.3272  -58.3092   24.4217   36.0186
  -16.3758  -60.1038 -248.1478 -381.6345   -1.0082    5.5224  -25.8202    7.3511 -106.2489   57.8421
   29.6556  348.6708
  -69.7954    8.2073   16.1816 -100.9411 -123.6388   44.8265  -28.6197    1.4727   79.6791  -20.0840
   31.5178 -182.4511   21.0735   89.3649   56.1689   -2.4423 -132.8138 -117.7989   53.9811   25.2803
  184.6061   75.5663   50.3177  -73.4594  -81.3158   58.4820  120.9529  121.3847 -165.9079 -109.8987
  157.1124  -18.0343  275.8106 -107.7847  -40.6853  161.5578  161.6522   59.2261 -223.5765 -192.8809
   85.5154 -293.1425  -92.9491   73.6952   85.1745  -14.0770  -45.9570 -139.7876   33.6621   27.0699
  -85.7932-1109.6939 -384.7600-3545.9526  -38.9465  -25.9859   35.3543   43.5773  -29.9290  -60.6002
  942.2797  411.5337 3577.0173
   17.0330   79.6975  -11.7703  -77.7637  -20.8042   55.6098 -175.2294 -146.5899   30.6858  -43.1549
  -42.5179  289.8039    2.7239  -23.2450   -4.3745   55.6416   26.7078  -14.5411  -38.8767  -12.1225
 -204.7774  256.7825  196.7105 -190.3991  -73.2200   25.7669   73.6485  -17.4907  -72.8603   -0.8443
 -192.0332    8.0242 -327.0839 -143.1482  -40.0570  327.5194  183.7430   91.7540 -344.2230  122.2409
  -32.9015  230.8295  -17.2154   85.7194   15.6948   -9.3602  -76.4359  -62.6389-2804.7158-1968.9110
 -765.1142  -34.2092    6.6184  -60.5378  -44.5087  -30.7765   83.8280  -40.4082  145.2317 -123.6695
  -25.3894   40.2734  145.6627 2927.6497
   21.8650   -9.4651  -34.8754  -24.1713   -3.1843   64.4854 -120.2341 -112.0466   40.9311   -9.8133
  -15.4340  217.0730  -34.4563  -20.8267   10.3152   30.4391  -10.4127   -2.4481  -33.2075   21.2633
 -183.5716  169.7193  150.6467 -119.3585  -65.4222   49.7643   -4.7178  -20.5388   -9.6775   61.2193
  -56.2929  -52.6869  -84.1203  -37.3069  -51.7980  113.7854   35.8290   45.3762 -101.8574   -0.5011
    0.1272   47.5060  -27.7392   15.3842  -56.4832  -57.0600  -19.7863   -7.9919-1827.4514-1731.6046
 -552.4548  -62.1793   36.8968   32.6083  -24.5972   14.0334    1.8383   -3.7701   27.1805  -46.4486
   34.7895  -50.3540  -13.0963 1837.1536 1761.8070
   12.7730   21.1214  -21.0324   -1.5789   -8.0487   27.7707  -98.7124  -57.8291   51.6905  -21.0933
  -17.2274   26.4366   16.7944   -6.6902    4.5016   11.8043   -0.4459  -36.4885  -12.0420    7.3706
  -19.7652  114.1233   75.1759  -78.7635  -25.5797   29.4272   46.0534   29.4983 -103.2473  -10.6215
  -93.3860   27.5162 -157.4525    0.7027  -14.0449   36.8043    1.3151   17.9199  -32.3035   75.6741
  -32.6281  129.7735  -24.9608   84.0811   -2.0564  -33.8091  -14.5868   42.4189 -775.7045 -596.8371
 -352.2046   22.1437   22.0003   31.9723  -24.3357  -25.0742  -16.0362    2.5715   31.9673  -82.8218
   -9.8066   -8.0944  -45.7975  787.0071  576.4156  420.9621
 -171.0256  -99.5172   33.3695  -45.6110  -16.7507  -13.2124   78.5888   49.7456  -49.5260   43.1710
   11.5502  -35.9229   19.8789   46.1071   24.5631    0.9780  -13.6669  -30.2930    2.3718  -14.8427
   43.1056  -55.9433  -37.4734   56.5168   -8.6755   22.1533  -25.9268  -52.7075   91.1190   27.0736
   31.1616    1.0087   47.2467  -24.9879  -25.1159  -14.9408    4.6692   31.0897   24.0294   -2.1898
   32.2746  -25.0419   54.0251 -106.3746  -34.4680   -3.9500  -15.3247  -21.5763  115.6667   83.1327
    6.7139   -3.5683    5.1694  -25.0673  -15.3238  -20.8577   26.3194   -0.1660   13.4428  -44.5914
    4.9973   13.0354   77.3478  -61.5236  -48.4008  -32.7266  707.7102
 -167.7702 -157.7480   32.2262   27.0259  -12.7655    9.5387   34.3654   69.6947  -33.3262  -43.7746
  -27.9952  137.1931   47.1199    4.2906    4.2445    8.7080    4.5760   16.6453   10.1809   24.8363
 -188.4277  -44.4812  -82.3938   28.5778   -0.1465  -31.1719  134.7363   17.8817   38.9168   10.6241
   63.2651  -67.2376   77.0030   41.4015  -13.9919 -218.5621  -17.9764    2.7924  192.3822 -109.1656
  145.8985 -154.4109   37.9157  -51.6338  -40.2601    4.3632   58.1915   26.8444   -8.7094  -73.5277
  -65.8072   11.7751  -20.7447 -115.5833   13.3393  -96.0568   38.3672  -49.6405   13.2896   10.4421
    8.7794   47.4008   60.6158   17.3644   66.5956   29.0945 -203.2969 2086.5101
   61.0208   34.9727   -4.9207 -121.7876  -94.4166  -57.4213   -8.6128   23.3617  -25.4427  -55.3837
  -19.4126 -124.4713   41.4040  123.0886   53.5196  -14.3230  -95.4079  -33.0198   89.4386   -3.0712
  167.9363   65.7526   43.0929  -39.4854  -51.5143  -12.4280   40.3258   11.3624   20.8509    7.0925
  -18.0209  -68.2169  -96.4754    5.1995   -9.1173 -143.5122  -13.5968   -7.0410  123.1249   33.6178
   78.9280   37.3940   12.1802  -40.0579   38.8509   15.6264   83.9419   -0.2551    7.6690   17.4208
  -17.2377   34.0930    6.3406   11.0145   10.4277  -19.8063    5.9237   14.3988    2.5579   15.1834
  -38.3744    8.7767  -33.9029  -45.5266  -73.2642    2.4058   71.5841   81.8372 2012.5624
  -53.7419  -28.8580   18.1398   76.8324   20.2003   28.6776   14.3793   39.2401  -25.1891   44.7770
   16.1528  342.2184   24.5669  -40.2126   29.5024   17.3102   65.0476  -18.2283  -81.4443  -29.4729
 -325.3274  -29.2599  -14.1964   -6.3588  -17.0530  -12.0296   77.0796  -52.2190  120.2066   20.7424
   52.8749  -30.5922   71.3292   -0.7463    1.8392  -13.2273   18.8194  -18.3164  -39.4471  -89.0209
   42.6693 -142.7035   44.8135  -89.5233   10.6415  -22.4813   -8.3437  -36.6620 -166.0032  -40.2110
  -25.4954   16.5450   52.8676  118.6357   19.9518   47.2056  -50.8656   29.4956    6.7655   10.1302
   -6.0211  -58.8912  -97.3962  168.9980   42.7286   81.3065 -106.8452   91.1546  -51.7321 1003.4130
   40.6730   45.7008    1.0201  -89.2598  -30.0596   37.0140 -185.1845  -34.8877   97.6086 -125.9000
   16.4356 -138.0947    4.6187  230.9308   26.0830  -20.1682 -252.3370  -69.2600  109.2194  -18.3139
   47.8135  104.5726  115.1955  -60.6821   -0.0739 -132.6508  130.8777   18.2308    9.7646   31.0944
  -36.2385  -18.9689 -193.7711   28.1488   72.0026 -398.9321  -23.8450  -16.1438  320.8977   50.6332
   26.7242  136.0300  -20.7343   36.0061  -64.5842  -27.6797   80.3816    9.1974  -17.0690 -109.8318
  -28.3156   52.6043  -39.1149 -254.9004  -48.2530  -40.5822   90.1888   -8.0228  -29.3854  -53.0978
   -8.6312   79.0451  219.8603   36.8532   78.6773   -8.8674   29.8699 -405.7195 -149.6067 -894.0941
 3265.9064
   49.0575   80.4903    1.5685  -88.6127   -3.3955    9.4689 -134.7613 -115.0540   40.7735  -51.3289
   -9.1659 -121.6999  -67.3263   75.9222  -17.8660   21.0938 -127.7771   -2.6044   71.1591   -0.2206
   99.9012  119.4777  156.1274  -59.8012   19.3168  -91.6172   77.9037  -22.1202   -4.2039   72.0995
  -95.3338   53.7340 -170.3600  -22.9345   42.7356 -139.5571   24.4273   14.8971   69.8893  112.8527
  -82.0380  174.0086  -14.7152   18.2965 -101.7452  -23.3341   -9.2322   21.4614  -34.6779 -113.3274
   -1.9935   71.9728  -14.3168  -74.2266  -38.0952   29.0349   -5.1005  -24.3243  -62.3077   26.6282
  -53.2186   38.8909   47.9655   60.2647  146.3274  -29.4724   -5.2803 -285.7063 -273.2681-1052.8371
 2601.0201 3138.7534
  -97.4248  -62.2995   40.6876  -19.3202   25.7712   29.0182  119.8085   50.6210  -49.0720   22.2726
   19.5054   39.2073   21.3779   31.0948   57.0388  -20.5562  -92.5721  -51.0873   26.9208   13.4038
  -40.2649  -28.0811  -39.0485   55.7516   37.5211  -25.5688  -12.8576  -58.3188   67.2810   77.0103
 -138.0558  175.2544  -49.3074  -60.2641  -25.1587  260.8241   68.8109   54.4943 -221.9238   80.5426
 -119.4646   14.4721   66.6896 -106.4522  -45.3204  -21.4722  -84.4744  -10.7369   23.8566   23.2096
  -24.6606   -4.3128   37.8698   98.8728  -10.6063   -6.2320   -7.4201  -27.0935    5.3015  -11.1441
   -9.0111  -39.0762  -50.9637   43.0999   62.3801   10.5404  -96.0153  -51.8226 -265.5886   32.7812
 -233.8795 -119.7772  865.7669
   -6.0234    1.3121    6.2286   20.9263   42.9943  -27.6335  -20.3987  -38.7761    3.7606   33.5352
   13.5006    3.9808  -29.5813  -47.6264  -13.7225   -1.8976   13.5427   18.4949  -38.7684    2.0361
   24.9735    1.9041    4.6102  -23.6220   24.3777   73.0769  -27.2399   36.3572  -70.1968  -58.0622
   48.3788 -100.0504    2.5298 -108.5497   18.3400  197.9870   87.3452   12.0130 -153.9552  -22.8216
   14.9408   -3.7066  -55.6789   54.8603   51.6539    9.6647   26.3655   32.7072  -62.6738  -37.2142
   22.1130    6.7628  -11.7913    3.1134  -19.1451   12.1284  -21.4387   16.2591    0.0320   22.6496
   -9.8223  -30.5985  -54.4288   40.4367   24.6731    6.5743  -20.0724 -207.4745  -22.4070  -10.2023
  -51.3388    3.3385  -84.1499  605.1893
  -17.0863 -110.7999   67.6329   10.3633   93.4501   46.9865    9.7212   29.9550  -54.3011  -41.6598
   28.2247  136.0835  106.4682  182.7813  128.4022  -76.3458 -272.3673 -123.9003   86.6503   32.7309
 -198.0561    6.5686  -53.6559   98.0616   52.4802  -95.1917  -68.1974  113.3917 -288.3868   25.3887
 -283.2927  353.2598 -239.0292  -49.4923  -25.7271  241.3116  -24.9093   87.0846  -77.9647  181.7033
 -186.3099  161.7236   24.5075  159.9449  -16.0608  -64.1983 -101.2387  -53.7316 -143.1806   -7.5104
 -107.2139   52.1057   53.4271  265.6267   65.4287  109.2535  -96.7753  -61.3708 -127.0297   96.4378
  -59.3819    6.6039 -200.8646  215.8406   56.9639   92.7256 -135.0318   -1.8983 -747.1414  -76.3577
 -311.3461 -223.2094 1535.6490 -395.4102 5451.1902
  -13.4945  -40.6464   15.1489   16.8832   27.1733   22.5859    2.1684   53.8253   -2.5243  -21.3235
    2.4359   13.6080   -9.8939    3.2008   15.7219    7.2746  -24.5913  -27.1626    7.8675  -14.5208
  -36.1624   -7.1772  -18.0093    3.5598  -10.6189   18.1409  -35.0298   -1.0977   -9.7048    2.6667
  -12.9624    2.8770  -21.3912   76.4977  -16.7886 -133.5809  -82.5404    9.6039  161.5067   18.3345
  -42.8107   18.1251    6.1781   28.3341   -5.3913   31.2635   30.8920   71.8336   19.9348   -3.2702
  -37.0951  -20.7094   15.5980  -25.9549   -8.1335  -69.5473   38.5943  -23.7393   36.4726  -48.9991
    4.1579   -6.3956  -11.3421   -2.4962   17.2345   -2.6270 -132.8425  188.1733  -81.0089  -72.9508
  101.9592   43.6876   16.9309   -4.3024   19.8261  548.4225
   59.6467   99.0704   -3.1789    9.9599  -58.7032   -2.7064 -187.7237 -125.2196   60.1397   12.0020
  -41.7136   -2.8233   10.5514  143.9030  -36.1257    5.6837  -56.2388  105.3059  -37.9205   54.0363
  -49.7809   32.8545   86.8542 -116.9698  -58.0165   59.8647   32.5592  169.6599 -228.6154 -152.8317
   82.8854  144.8804  -46.7245 -246.5267  133.5545  235.5935  149.4997  -24.2438 -228.0951  -45.8782
  -93.9508   48.6074  -84.8126   97.6659  125.3840  -41.1667   -2.9384  -90.0996 -133.1182  -78.9215
   65.0664  128.3539    7.9158   85.6418  -36.7315  122.1734  -15.1277  149.4023   -0.5033   49.6330
  -39.4950    9.9631  -85.6994   37.6197    9.5066   33.8740  -44.9307 -748.7228  222.9404  266.3595
 -298.2446 -168.9624  -73.1202   71.8464  183.6700 -711.9287 5396.6742
  -35.9077  -40.4536   -8.2268    3.7573   37.8255  -27.7356   69.4798   32.7792    0.6361   19.6792
   42.9929   -8.2845   -4.7258  -94.4364   -7.7508  -10.9722   57.6743  -25.8583  -10.7846  -31.6626
   77.8939   -7.6482  -20.1587   33.9224   55.0249  -62.0228    6.1735  -79.0138   45.2344   38.1111
  -84.4865  -16.3898   23.0853   95.8761  -18.3157 -197.2438  -52.8493   -1.2815  190.5357   46.0346
    8.0609  -45.4442   27.5334    8.3080  -25.8925   44.9040  -24.7331   43.3896   44.5460   77.3625
  -33.0578 -101.8432    6.8149  -78.5752  -14.4278 -121.9097   77.1852  -69.1156   50.0116  -92.4961
   45.8585    1.8230   93.9841   16.9384   -4.3711  -30.5493   27.4631  239.3741 -260.1358 -140.2474
   -2.7223   65.9917   59.9428   15.5477  -93.3001  398.0962-2033.7405 1478.8132
  -43.3111   18.7837   -3.1467   20.1418  -16.2643   -9.7774   32.7752  -12.4039   12.0995    8.0829
  -30.9383   16.6288   15.6667  -20.4083  -49.6530   29.2572   24.9475   67.4114   14.6949   41.8595
   -9.3696  -68.4516  -23.1826    2.8759   15.6649  -27.1394   38.0995  -27.0655   34.7788   -5.9481
   -6.0296   26.6636   10.3140  -28.0857    7.1164  -57.4757   23.8276  -18.6372   50.0566  -34.0974
   30.2344  -27.1338   34.8405  -78.8294   -3.2431  -21.9616   12.4676  -36.6239   15.2711   33.2805
   22.1469   40.1012  -10.6081   20.9637   -0.6638   10.7646   -2.2606   22.1375   -2.9228   18.7684
  -24.4097   23.6410  -12.8895  -18.7622  -16.8276  -13.5418   22.7737   28.5506   16.8326   40.6513
   -8.4172   10.0213  -39.8808    8.4140  -42.0373 -277.1482  540.7804 -291.5288  333.6606
  -28.0107  -97.2483   36.3129  -36.5420   39.6393   12.0440  138.7698   81.7206  -50.0207    7.8018
   65.4320  -17.3393   -6.0134  -68.5144   84.5045  -12.4107   -2.3821 -144.0178    1.1340  -52.1655
   50.2762    8.2278  -71.1066  119.6695    2.7332   13.0234  -60.2722 -193.4941  243.8436  175.5694
  -84.1727  -90.6151   12.3367  177.6923 -106.2337  -15.3751  -91.0545   32.6613    0.7259  101.8064
  -10.5038    5.0670  132.8815 -171.5254 -121.2940   40.0744  -40.8785   47.0913   89.2187   91.9406
  -18.1791 -114.5502    6.0439  -19.3073   24.8270  -63.9771    0.4930 -131.3577   -6.0488  -40.9516
   21.0112  -29.9838   29.4579  -36.7798  -37.4497  -40.7189  144.6548 -256.6937   66.6341 -270.2946
   86.6675  140.6232  145.8711 -103.2673   17.1969  505.3032-4204.7710 1645.5910 -536.7721 4298.2597
   70.9651   37.6283  -21.3384   18.2520   -1.2556   44.6158 -145.9832  -58.2039   44.7336  -21.1785
  -53.4270  -61.2178  -12.9217   51.6518  -45.0708    2.8109  -35.9994   73.3232   46.5556   55.6697
  -15.8601   45.4330   42.4713 -110.0643  -43.6542    8.2679   21.6668   82.6995  -78.2518  -51.5851
   94.5607   47.4390    9.1025  -36.5140   33.9200   70.6221   -6.9081   11.5766  -45.3963  -85.3114
   -8.6530    1.6416  -28.6598   41.7759   40.3816  -26.2085   41.5863  -19.4758  -89.3094 -104.5369
    9.0131  108.2647  -18.0777    2.6094   14.3391   91.2841  -62.7967   56.4884  -42.2229   83.0108
  -31.7292   42.6436  -34.5993   24.7218   29.1081   53.5040 -110.8676  139.7925   25.0997  118.2222
   52.1879  -31.0238 -128.1224    7.5252  -91.3733 -287.0268 1787.6548-1087.4791  266.7392-1811.9674
 1195.5432
   -3.3470   20.6233  -17.2961   44.3084  -33.9440  -18.7871  -64.5851  -10.2327   30.3932    5.3596
    1.0722   16.7837   -5.3094  -25.0391   -2.5399    6.4727   81.7363   -6.8302  -29.3376  -27.8970
   -4.3304    4.6817    7.3469  -23.2535  -26.2212   36.9238    9.2267  -13.8371   67.8644  -45.2095
  151.8841 -151.1277  118.1257   12.5552   28.8957 -145.1231  -11.1136  -50.6226   82.6626 -114.4234
   97.3463  -83.5106  -31.7676  -16.2565   31.6687   15.8639   51.6260   -4.3710    9.7569   -8.5999
   42.4246  -12.3017   -3.0642  -34.8827   -0.8761    3.8366   14.7516   29.8580   19.7336    3.3593
   45.6350   -9.2226    8.3866  -56.7675  -20.1764  -17.4370    9.4179   15.7029  -69.4683   94.1867
   84.0351  -13.1151 -555.7667   85.4698-1294.3983  -26.4180   95.1852  -62.1242   11.0724 -122.0922
   92.8442  585.9859
  -12.2850  -34.1666   31.6344  -64.9674  -61.9313   54.4730   89.9748   61.9084  -79.6774    1.6442
   -7.2502   49.9527   32.2119   37.3987   18.7033   -9.9431  -30.2358  -39.9706  -23.9072  -22.2751
  -83.3000  -19.8706  -22.0966   56.7036  -18.3925  -45.7538  -22.1113  -88.1077  160.5568   60.1762
   39.0240   62.0426  110.3434   92.4168  -38.5471  -93.7759  -53.4946   -2.1408   51.9670  -27.7970
    7.7805  -76.3811   68.6417 -121.8380  -37.2673   15.8740  -27.0779  -26.1090  110.7551   89.2415
  -13.0460  -13.3827  -11.7322  -45.3067    6.8354  -34.6344   28.6386  -26.2771   22.8225  -34.7762
   21.5285   24.5950   72.5950 -109.3381  -76.6507  -15.1100   40.6736   81.2846   56.7134   26.2318
  -30.8621  -71.5840   69.2387 -354.2560  301.7395   15.9281 -122.7942   42.0749    2.2579  106.6713
  -37.8544 -117.0830  446.5588
  -12.1574  113.4714  -78.1906   94.6269  -87.1967   14.6070   -8.0954  -11.9316   36.4899   95.4934
  -20.1035   99.9736  -77.7158 -159.9079  -95.4572   53.3479  258.7657   84.0967 -157.2137  -42.9851
 -155.0811  -76.2988  -38.7061  -33.4486  -49.1105   80.2445   55.2321  -48.2134  209.7921  -64.4960
  335.1725 -326.3521  319.9708   30.9975   29.9588 -103.3431   22.1608 -103.0383  -28.4679 -246.6043
  179.6216 -231.4054  -78.4681 -104.9099   28.5754   45.3340   78.4278   34.4327   93.0966  -53.6536
   98.2802  -58.0395  -69.4911 -280.3233  -69.7815  -82.9234  111.8554   62.3308  114.1517  -96.8864
   62.7735   31.8371  181.6381 -147.3221    2.3659  -59.2672 -110.3397  115.6374 -308.8704  148.9882
  237.1682   76.9509-1248.8093  350.7132-4299.4867  -77.5816   95.0654 -122.7208   95.1366 -163.3000
  209.7092 1324.6767 -333.5982 4523.1204
   -0.9926   -5.4034   35.8098  -60.0066  -28.4894  -19.3718  -18.1510  -33.2266  -11.0290  -13.5079
   -8.6576 -135.3059  -25.6253   26.6187  -41.5124  -18.1668  -23.8980   24.6134   57.0622   13.8543
   95.2506   25.1851    0.6473  -21.8669   -5.0782    0.5611  -11.9740    4.8740  -18.5792    8.9898
  -63.8443   22.3136 -104.1055  -37.6355   -0.5157   68.3410   44.3771   -9.1679  -46.8155   85.2914
  -46.4419  144.5160   -7.1879  -40.6615  -24.3310   24.3909   14.9424   13.5959   78.7924    7.5228
   18.5098  -24.4430  -48.6878 -135.3474  -28.4664  -37.3234   52.8099  -28.0736   -2.1643    2.8695
  -30.4007   64.2155   82.0779 -119.5508  -10.1225  -70.9233  -43.2891  178.7812  235.5509 -788.1531
  855.7518 1039.8702  -54.2764   19.4410  -16.9481   57.9744 -187.4587  119.2823  -12.5166  223.0818
 -102.2654  -78.5553    6.4290   -8.4487  924.8219
  -16.6112  -55.5542  -11.8092   35.6949   64.7054   -2.2727  220.4113   29.1137  -87.1013  108.9191
    8.5304   51.3745  -27.9484 -240.6594  -34.6029  -23.1353  247.4715   52.7363  -64.1181   20.1045
   53.7026  -89.2442 -113.1371   15.3046   43.8808  128.9624 -168.9350    3.3537  -22.8266  -29.8389
  -17.9246   57.6056  141.9077  -20.8038  -74.9133  440.4064   20.0289   20.6010 -335.3826   14.9791
  -92.9699  -44.0687  -21.6476   25.7321   77.9826    3.1384 -121.8218  -30.9461   30.6457  124.9274
   51.2706  -94.1537   37.0887  208.7804   40.5813   47.9078 -102.8709   -8.1037    3.9368   28.5190
   23.0063  -77.6970 -123.1382  -23.5853  -81.4046   15.6322  162.2819 -306.7674 -315.5454  736.7998
-2560.7718-2214.2276  289.2100   97.1406  267.3083  -82.2129 -124.9834  118.6206  -65.0469  176.5399
 -185.6512 -105.1772  -29.9530 -312.2240 -913.4646 2819.5364
  -37.5623   -8.5886  -33.4350   75.7056   30.1986  -37.6877  128.3586   56.7296  -26.6220   69.3143
   15.6399   53.8343   32.6790 -127.1405   -9.0742  -14.6151  158.3648    1.6726  -61.7670  -16.9762
   12.6800 -100.0390  -83.7677   24.6544   22.4942   87.5521 -101.8884   14.9950  -41.4303  -60.6951
   12.8817   -5.4579  122.6727   -2.9240  -51.0720  212.5912    2.6264    1.5419 -119.8380  -39.8174
    9.2579  -94.9905  -26.8836   22.0111   82.3134   -5.6064  -73.1949  -30.4673   42.9777  133.5329
   16.7068  -86.3738   36.5421  110.6619   18.5888   -1.9237  -35.1242   18.3109   56.1258  -53.7621
   64.4214  -53.1010  -36.9339  -22.4776 -120.1185   20.7345  181.8644 -308.0115 -321.7663  943.3905
-2236.3933-2520.2763  164.4676   11.5958  107.8808  -26.6002  -97.2856   68.2950  -40.3974   91.9045
 -151.1555  -14.1571   43.2825  -93.0816-1112.4097 2445.2016 2770.2263
  -33.7465   -5.0453   -5.2071  -30.0071   -0.1278  -10.5269    5.7906    5.3745  -12.9660  -18.2632
   -3.9302  -28.8312   12.3904   51.5726   34.5556  -21.2075  -53.5295  -47.1364   15.3986   -2.8825
   40.7326   22.1512   17.0308    6.5141  -13.3107    4.7981    3.4617   -4.3407  -20.5139   17.3019
    3.9067  -15.5749    9.2740  -10.4729    2.7731   -0.1696  -10.2389   -4.9252    2.6349  -13.5173
    2.7935  -26.1184   13.5358   13.8133   -5.4718    9.9019    2.3912    9.4322   20.6073   16.7935
    8.9438  -15.6082   -5.5922  -16.9293   -5.9649   -5.9516   12.7146    6.3368   26.6920  -27.1158
    8.4105    6.0316   12.8969  -45.2680  -22.5032  -20.4956   -0.2642  -21.9142   32.5415  -24.3967
  -14.4910  -15.3952   26.4155   11.9655   61.0186    0.1546  -42.3199   12.0657  -24.4272   61.5734
  -47.9704  -32.5305   -3.3366  -98.2235   29.1346   21.9528   51.9267  159.5150
   22.3768 -589.0089   84.0170   -5.0927    7.0548  -15.9320   67.7515   53.5492  -44.1979    9.0771
   22.9193   30.6676   -0.9747   57.2449   41.0168   -7.8713  -12.4068  -35.7483   -1.6671    2.1755
  -40.5191 -108.0482  -64.7071   80.1658  -13.4801   45.3962   -9.2600   25.4391  -15.3845   14.1103
  -31.8572   22.8606  -49.5038   52.4787   21.8238 -179.8139  -48.2192  -42.7475  170.5154   54.2601
  -39.0340   65.6843   -9.9327   56.6901   -4.5654   18.4130   32.6733  -10.4010   94.3713   34.7672
   39.6137  -26.5177   23.0173   27.2739   19.4196  -32.8570   31.9949  -18.6316    6.4887  -12.2767
   14.8351   -3.6912  -21.3688 -114.4249  -18.4368  -31.5274   -4.8635   59.3743   21.1955   -4.0132
   41.0961  -11.2064   21.6549   -9.4355   53.3668   24.1792  -72.3174   20.4992  -21.9878   71.7603
  -33.8818   -1.3658   15.2509  -55.6040   23.4257  -45.0989  -53.4667   -4.1259  724.9673
  -11.8808   76.4069 -159.8135    7.7223   24.1224   30.7504   65.9745   -0.8992  -53.1579  -25.3339
   31.1731   41.5003  -19.9895  -43.4381    6.9142   -6.5940    1.5075  -46.5176   12.3692  -18.3688
  -77.4903  -34.7150   43.7019   16.4474  -12.9244   27.0660  -32.9450   40.3600  -76.2772  -27.9392
  -48.2223   58.1462  -28.7863   33.3510   -5.1377  -24.6169  -38.3110  -18.4940   -0.5483   44.8181
  -49.4424   72.0047   -9.1507   62.6694    4.0998  -30.2351  -15.4676   12.4585   -7.1208  -19.3397
  -28.7696   17.9162    2.5021   22.0707    1.2778   64.0011  -64.0180    8.7316  -58.0546   22.2379
    7.2986  -13.3567    3.3578   -0.6031   21.2403   -1.1296   43.4290  -64.6416  -16.0044   -6.4996
   16.5593   29.7970    0.3997  -13.2672   47.8211   38.8372 -139.4907   61.8123  -59.6542  123.1886
 -104.9506  -10.3379   25.1953 -110.1509  -16.7609   37.0588   21.4945   32.6366 -133.0226  643.5718
    3.5355   26.5993  -50.9615   29.6776   10.8929    9.4548  -75.5742  -19.0923   36.4768  -14.6742
   -6.5457   42.3755  -35.8115  -53.1765  -50.5707  -21.8833   22.6012   28.7570  -27.1368   26.3354
  -35.3477    7.3485   24.1125  -43.2620   -5.1942   -0.4603    0.4740  121.4002 -168.9946  -71.8349
  -84.3492   45.8338 -107.6882   29.0202  -21.7347  -93.2440  -96.8618  -14.9134  108.8575   60.9028
  -57.4583  122.5294  -82.7436  140.5242    2.7266  -47.7480   -8.6985   61.3779  -46.6932  -87.3357
  -51.1802  -27.4075   18.4878  -38.3471   24.3840   92.1389  -97.8866  -10.1540  -69.4823   70.1675
    9.1860  -18.7655   24.0873  -17.1759  100.5949   40.9452  -57.4138   10.6957  -31.0948  -26.0542
   74.8427   31.5576  -57.1187    4.2510   24.5538  -42.0012  184.9187  -79.2048   -7.8411 -166.1955
   99.0305   -1.2220  -35.8906   11.3230   10.2816  -64.6591  -66.2913  -85.4089  -20.0398   34.8180
 1305.6155
    2.7175  -39.0527    6.0248    1.2310   10.0992   42.2423  -84.8261  -65.7968   11.6649    5.1198
  -14.7808  -81.7412  -37.4664  -53.6435    0.0825   -1.5735   10.3619   -7.6815   -2.2202  -31.9902
   20.3009   52.4315   -1.6784  -22.7418   14.5736  -51.9107   21.4806   38.6839    8.0260   -2.5535
   -8.3082   50.2157   -7.5329   28.3984   -5.7080  -14.6097  -33.3999  -17.6528   33.9605  -26.5223
  -49.0821  -39.6149  -36.8796   -2.0752  -16.0457  -39.2239  -19.2911  -27.3173   63.1756    0.6006
   40.6366   26.5621   -6.6533   25.8289  -55.0805 -113.7118   89.0473   32.1904   70.4544 -104.0336
    6.3658  -13.8691  -22.6205  -27.1340  -11.3856  -23.6585  -14.5828   19.1193  -37.7506  -13.2532
   47.6724   40.0728  -13.0509   19.4400  -36.6370  -18.1453  151.2225 -123.4421   46.0029 -159.5316
  105.1239   11.6778  -51.9953   92.6973   11.4423  -91.4622  -51.3408    4.6561 -100.8245  -37.1846
   88.7232 1154.8298
  -19.4692   23.3316   -3.7286   27.7442    5.3951  -59.4537  -44.0955  -15.1156   63.1017  -15.2493
  -40.7192    6.5790   15.2301   32.2215   20.1145  -28.8643   -7.9515  -13.0577   11.8145    6.1207
   10.7866   28.0735  -26.9294  -22.3711   16.0615  -15.4772  -11.5035  -73.9493  146.6183   75.3459
   58.6254  -88.5581   26.0914  -64.0906   -7.8204   96.6187   74.5277   25.2882 -106.1278  -61.4306
   47.9802  -50.1525   29.5066 -101.3988  -39.3948   -6.5354   -1.2884  -27.5418   20.5614   19.7641
   24.6862  -11.6121  -21.3284  -36.3915  -25.1469  -52.2500   57.2495   24.1576   39.0179  -41.1129
    1.1955    0.2214    9.1089    1.7033   -1.0377   -6.0333  -32.7336   51.5764  -60.0549   23.5669
  -14.9472  -45.8095  -42.3535   22.1397 -135.9163  -16.1570   48.0897  -33.4271   21.0980  -64.3600
    6.7777   45.1031  -21.4261  215.9153  -12.6257  -22.1505   25.3421   -2.2596   -9.7463 -326.5063
  -26.4625   60.5598  807.3119
  -87.5430   15.1360   28.3381  -25.6367  -78.0951  -35.0109   48.5900   20.0348  -13.8163  -15.5372
  -17.1441   45.6949  -42.1477  -14.0973   -2.7202    2.9146   21.3254   17.9690  -33.2380    3.1529
  -14.3269  -48.5678  -44.2313  -27.1206  -30.2812   23.7973   45.2015  -98.6666  186.0177   62.9912
  113.1741 -162.5631  113.2447  -33.3748  -10.8508  -61.7875   34.3571   25.7103  -32.0429 -109.9493
   80.1762 -132.1462   21.9035 -155.8890  -29.4381    8.3869   32.0331  -30.6380  -33.7951    3.0005
  -18.3175  -32.4253   -8.9556  -10.6987  -27.3397  -86.3359   51.4238  -54.7337   72.9197  -37.4109
    8.5371    3.8106   59.3285   28.4265   17.0716   13.6543  -27.2075   72.7982  -24.7290  -22.6737
    3.3569   20.1220  -24.0526   41.9114  -95.5383  -12.5406  -56.2942    7.8476   10.0603   17.7410
  -11.2426   14.4431   11.3173  109.8059    7.2700   16.0491  -38.1139  -19.2017   -6.5197  -47.3842
 -462.2998  -16.7619  136.1842 1295.0404
  -22.6965 -133.1021  -30.9868   46.3022   -2.2271  -75.0673   69.3913   40.5653  -30.9799   29.1634
[...]
  -22.0781    0.9279    2.4420    6.2159  -43.8886   36.7294   68.8075   27.1496  -30.8354    2.1814
    3.9668  -51.4914    2.0412  -72.2824 -208.8543 -204.4550  -26.3150   14.7437  -31.9983   77.5798
  229.2251  313.9494
    9.4298  -26.8680    8.6464  -25.8043   15.4527   45.9643   50.6895  -10.1896    4.0338  -25.5907
   12.1616   31.9903   58.7083  120.5565   64.9035  -46.1809 -140.7812  -93.6326   43.1095  -24.2308
  -38.9796   42.2437   39.2404   11.3756   16.7633  -73.8457  -47.5107  -24.9096   29.9047   12.4889
  -18.4862   81.5211   32.2146    9.1160   10.6336    5.0098   26.4514  -27.5577   -2.7189   21.4746
  -14.5760   -4.4385   15.9931  -29.9786    5.6369    2.8923  -11.6978   -9.0861   25.8872   54.6169
   12.9954   17.8928   -0.5798   11.9420   25.4319    8.0021   -3.3192   -8.6949   -9.6120    2.6052
  -23.4054    0.0316    3.5244  -29.1854  -65.0075  -31.2721   22.8210  -49.8125   10.0806   11.0351
  -57.7703  -49.2736   42.4710  -54.6436   86.0608    5.1467  -50.8263   19.4373  -14.1413   33.1343
  -26.5230  -20.8036   66.7218 -138.5312   -9.9859   90.8325   69.1480   49.8262    0.1414   76.0755
 -139.6065  -43.3195  -27.9454 -320.0459  217.7486  -89.8127   -6.2937   30.8630  -50.9834   18.9839
   38.0161   21.3803  607.1156
  -31.8440   11.8637   15.8179  -27.4218   10.3429   18.5696   27.5253   17.6594  -24.2257   -7.8159
    6.8032  -80.5680  -24.1618  -51.8220  -43.5590   28.0404   62.9139   30.1812   19.2678   23.6605
   24.6689  -57.6410  -17.6078    1.6527   -2.6071    2.4050   11.6820  -68.2488   95.9934   48.9847
   41.4751  -46.7372   47.0699   15.1380  -42.7000   10.1029   -1.6397   50.0388   10.9315  -33.8689
   48.5417  -65.8567   51.0913 -111.9595  -57.1676  -19.8606   13.4628  -13.0253  -38.3995  -53.9857
  -44.8440  -18.9779    8.9993   10.7595  -12.5298  -43.9193   28.0672  -34.8908   37.0371  -15.8153
    5.9728   -9.3446    9.1618   48.4561   72.7682   18.6685   18.4779   60.0463  -10.9767  -42.9169
   74.4618   33.3457   -1.4602    6.9853   -0.9477   20.5939   13.8839    1.2681   10.1901  -11.9117
   22.7780  -16.5387    3.4653   28.4941   36.7624  -65.7399  -51.8997  -43.4727   13.8225  -45.9481
   50.4320   22.1872   -6.0196  243.7072 -382.4963   99.2074   24.1025   -6.2965   81.3833   23.4551
  -45.1787   -0.3474 -268.7114  534.6439
   20.1046   30.2796   -2.1492   13.8735    8.0857   -2.8359    6.5111    6.2828    8.8303   -8.5919
   -5.1116   12.7895   16.5089   29.9035   20.9376  -19.9035  -11.0086  -10.9837   12.4910  -17.7501
    4.5827   -8.1748  -18.5006   25.6457    0.0445  -10.7507   -4.8181   40.3024  -72.5217  -25.7244
  -27.5688   35.8755  -37.9658    6.1075   13.6147   -2.8781  -12.4012  -23.0947   10.8084   39.2693
  -29.2886   38.5710  -19.8594   61.4252   20.5581  -13.8789  -16.1304   -8.4921  -20.3379    0.2221
    4.6731    5.4047   -7.5595    3.0037   12.5477   34.8497  -20.4779    6.9768  -38.2656   33.8259
  -16.8488   -8.6659   -8.3105   18.0987    2.2820    0.0356  -10.7815  -27.0040    8.2289   23.3085
  -28.8312  -23.3500   -8.5595   -7.4916   14.5237   -9.3642   10.4389  -12.4715   -3.1161    2.2280
   -5.5151    8.7103    6.6699   -3.1415  -32.4753   19.2556   16.8877    3.6951  -13.5449   -8.3102
    7.2426  -19.5930   16.1661  -81.6523   81.6719 -126.3749  -19.9311   11.6472    4.0517   25.2725
    8.9563  -15.9401   54.2291  -74.6307  199.4168
   15.0947   16.0540   28.7414   -0.8900   10.8735    1.6719   45.6934   27.5376  -27.8080  -11.4936
  -12.6779   28.2788    4.9519  -22.8426  -17.9772   20.8876   16.5179   31.7998   -1.1026   13.4390
   -5.8303  -15.7564   -8.4843   25.0287   15.3096   -8.5570  -23.1698  -34.4918   57.1753   12.9005
    5.3900   -5.6021  -32.2056  -61.2584   12.5114  124.0945   67.4802    2.4699 -105.1279   20.1201
   -6.3447   36.2365   14.8464  -69.2978   -0.8717    0.5196   12.7494  -33.3686  -10.8723   -6.9061
   23.1477  -12.4728   -7.9837  -44.5571  -20.1182    7.9238   34.1481   13.3796    5.1082   18.5778
  -14.0254   -5.0693   32.7662    3.4137    5.9508  -16.4296   12.5993   35.8047   29.4173  -23.6602
   74.7013   61.0026    1.3986   21.0994  -29.9018   -1.2778   16.9808   22.5189  -11.8613  -12.0653
    3.1109   14.2761  -28.7538  -13.7839   49.6039  -58.0544  -75.9999    5.4403  -10.1775  -21.3712
 -205.3865  -85.3246  -56.3271  -48.6845  -53.7009  -60.9180   20.4386   16.9176   25.9238   63.0315
   37.6831   19.4017  -10.7703  -20.5753    3.2221  345.5176
   26.0606   21.0152   25.3105   11.5228   18.1184  -19.6361  -28.7273  -11.0459   57.8069    4.1724
   11.2399   -8.0556   13.1946    3.1048  -20.8101   21.4511   39.2879   38.9124   13.7508    6.0290
   -0.6720   11.0896  -15.8395    0.3087  -10.2722   16.6898    2.0115   -0.0403  -53.0074  -17.1968
    0.9392   -1.5049   -2.7210   15.4644   15.5099  -30.7562  -18.5939   42.2636   66.5306    4.7353
   31.2827   -8.8844   36.6919   15.7276   10.5177   18.2987   -6.6485  -13.9599  -10.2169   21.2324
  -16.2073    0.2824    5.9387  -11.8564    8.7276   31.4958   19.9692   -3.2528   -5.2372   13.9258
    2.7806   20.6023    1.3169   23.7430  -23.4380   13.6433    2.5896   -2.1226   49.2955   27.1692
   -0.4687  -26.2289  -17.9206  -35.3030   43.4317    7.5712   -6.7220   30.2459   10.6801   67.5161
  -18.0551    1.0205   50.5559  -38.7700  -19.7807  -48.6875    9.3825  -23.8943   18.8588  -47.2917
 -175.8101 -419.0282 -193.6783  -69.3386  -42.2971  -28.1551   -0.0796   16.2042   35.4086   44.2621
   36.9411   39.7832    3.7325   20.1560   28.9314  173.9137  645.8023
   11.5559   46.1196   14.7890   -0.3994  -25.3940   -4.0738  -27.5698   14.9951    3.6625  -19.0936
   10.3098  -59.0480   15.0069   22.2723   15.1552    3.7364   -4.9384    7.7261   26.0247   -4.6749
   72.7356   11.8106  -33.3966    9.4697  -19.4536   13.9873   26.7248  -14.1931   10.9280   -9.0955
    4.8535  -10.4627   22.6105    9.7959    3.8392  -16.9386   -4.9467   27.7494   28.0557   -5.3223
   35.4474  -23.5930   34.3045  -31.1511   -1.2435   19.1286    3.5813   11.5356  -35.8735  -17.1267
  -36.4172   -2.0296    6.7348  -10.6606   19.1552   18.2178  -12.3473   -5.9678  -37.5835   27.1244
   15.1962   13.4455   10.6270   29.3894   14.8832   20.0088   -9.6267    5.9988   86.7644  -18.4022
   24.7618   27.0067   15.1749  -12.5929   61.8723   16.3869  -36.9170   53.1630   -6.8230   60.0970
  -31.6804  -22.6648   34.3891  -76.9162   30.6395  -48.4255  -24.3915  -27.8749  -34.0812 -110.3349
  -90.8566 -163.8983 -137.6425   11.9339  -12.1996   -9.0762   18.3353   -3.2548   19.0323    0.7442
    2.3937    2.2297  -16.8051   28.7322   21.5473   46.6955  247.3237  316.3636
   23.7109   -4.4093    1.1722   29.1827   12.6280    1.8093 -123.9847  -72.8919   85.1454   -1.2353
    9.0851 -109.1452   10.5847  -28.2101  -27.7390   32.6155   41.8364   51.0056   11.7386  -19.5291
   78.8149   87.8153  -28.0749  -19.4459  -18.0510  -13.7994   -8.7554   -1.2987  -25.1769    5.6543
  -12.8124   29.1674  -16.0940   45.4632    4.8226  -13.3729  -45.3110    6.5924   57.2384    6.8712
   -8.3749   -0.3193   29.8906   12.2355  -10.8552    6.4901  -32.4461    4.6757   21.0874   26.5295
   21.4738   29.5839   -7.2290   21.0140   -3.8127    0.2194   18.3423   22.1983   -1.1012  -10.6765
  -10.1500   11.5835  -48.9871    5.4428  -27.8216   -1.3736    6.6042   33.4183   -9.8400  -17.3881
   49.3263   35.6700  -14.5802  -17.7152  -53.2230   11.1662  -11.0636   -5.3624    7.5448   20.4771
   29.5451   29.9153   -5.7646   83.8777   44.5822  -88.3690  -53.0267  -18.8953   14.4598  -84.1765
 -297.3566  168.9428  -53.6287 -115.8502   18.9794   20.5607   43.0151   10.8274   21.0287    0.8693
  -27.1119  -16.9400  -31.1476   -5.7429   31.7375   26.4543  101.0669   66.9688  590.9151
  -17.4066    2.8515   -6.2464   -6.4665  -17.8117    8.8789   93.6684   78.8573  -24.5648  -17.1464
  -15.8022   75.2328   -5.3233   -0.0981  -16.8636  -27.1806   25.1465  -20.6627   -6.5857    8.5339
  -46.1595  -75.6997  -34.7355   12.8048    3.5149    7.5522  -30.1815  -57.6842   83.6710   25.6783
   40.1707  -35.7071   35.9205  -38.7742   -4.3897   12.4551   46.2772   24.4226  -40.6723  -21.8982
   16.0268   -9.8892   27.2536  -58.3947  -17.4542   -5.8816   13.1292   15.5597   -8.9491  -11.5044
  -16.5331  -26.4417    6.7197  -45.4672    9.8413   10.9658  -12.9527  -14.2048   18.1987    6.6833
    7.1288  -14.1196   36.4031   -6.3584   11.3458    7.3285   -2.0910   23.3432  -49.5533   26.0009
  -12.7334  -49.5756  -25.4328   10.3167  -57.7453    7.8011  -35.7684   27.7404  -22.4936   19.8967
  -51.1367   10.3895   38.9210   43.7151  -39.5124   11.5210   40.9647   23.0885    9.3003   78.9964
  239.7065 -302.6297   97.9801   -2.3173   -5.8547  -34.0783  -25.5125   -4.7330   15.2684  -14.6789
   18.7990   29.1929   15.6338   23.8059  -11.3328    6.9102  -94.1699  -50.0114 -293.7358  445.4535
    0.1968    2.9038   -4.9964   -8.2025    1.9400   18.0999  -49.0804  -40.1865   19.4920   -3.7346
   11.0554  -65.1045  -10.2903   -6.6994    3.9619   -3.2502  -18.9536   -1.4943   30.2121  -17.7070
   55.2199   56.7891   37.8929  -26.2091   -1.7914  -21.4504   22.3314   48.5201  -71.7927  -21.2345
  -49.3940   62.0647  -39.4382   54.0040   11.8898  -88.7574  -53.2036   -3.0050  104.7236    9.9160
  -31.7822   12.7186  -12.2552   56.5195   14.7967    9.5021   -1.3976   -9.0670   47.8182   15.4786
    2.0620   20.4905   -1.9519   43.1544    6.0095  -10.1746   -1.4257   -5.1445    0.2090   -5.8402
    3.3673   -2.1244  -28.0609  -32.6138  -21.1830   -6.1383   -1.7087    9.2838   27.8128   -8.2748
   36.8302   61.2088    6.8412  -14.8762   32.7193    5.1495   -2.8477    3.6526   27.2338  -22.1555
   25.2090  -18.9691   11.3506  -42.0682   15.9818  -58.0488  -29.8112  -22.9434   17.0098  -30.3319
  -90.1561   92.5038 -137.2825    0.2092    1.2253   36.9137   12.7570    0.7893   -8.7211    8.1181
   -3.3218    1.2237   14.4239  -15.9803   11.0435   23.3386   24.7319   16.3497   86.7040 -116.2283
  223.1372


      MOLECULAR POINT GROUP   :   C1  


          ALPHA EIGENVALUES  
 -31.90021 -31.46523 -31.25642 -31.18120 -31.17182 -31.05817 -29.93871 -29.93392
 -29.92494 -29.91798 -29.79541 -29.78042 -26.58403 -24.88095 -23.98875 -22.36423
 -22.35047 -20.47956 -17.04346 -16.89365 -16.57308 -16.44774 -16.05678 -15.17776
 -15.17151 -15.16422 -15.15675 -13.74047 -12.01404 -11.26797 -10.55157 -10.54194
 -10.45837 -10.41461 -10.39021 -10.33612 -10.30816 -10.23011 -10.21572  -9.96597
  -9.78206  -9.63954  -9.58348  -9.41617  -9.37470  -9.19140  -9.17721  -9.09309
  -9.08556  -9.08329  -9.07084  -9.06899  -8.96946  -8.95800  -8.93883  -8.91273
  -8.29754  -8.29411  -8.28415  -8.27819  -8.06892  -8.01499  -8.00033  -7.59545
  -7.59521  -7.58149  -7.58019  -6.93019  -6.34283  -6.31817  -6.26424  -5.94757
  -5.93125  -5.92202  -5.70572  -4.90146  -3.96559  -3.95124  -3.77483   4.51054
   4.53373   4.60812   4.61137   4.65848   4.72769   4.97010   5.02432   5.16626
   5.35169   5.39800   5.83284   5.87536   5.99700   6.00389   6.00766   6.01700
   6.02301   6.07556   6.14314   6.22686   6.26000   6.26368   6.27167   6.28039
   6.76224   6.77652   6.81969   7.09371   7.09872   7.15836   7.19021   7.23072
   7.29115   7.44807   7.46245   8.10494   8.56312   8.95633   8.95990   8.97150
   8.97352   9.19852   9.20051   9.21489   9.23830   9.36956   9.42739   9.62446
   9.71627   9.78101   9.81863  10.18412  10.42285  10.78228  10.78502  10.79481
  10.80106  11.11191  11.37617  11.39058  27.24501  29.10154  29.26452


           BETA EIGENVALUES 
 -31.86073 -31.45826 -31.25724 -31.18130 -31.17033 -31.05659 -29.93871 -29.93397
 -29.92496 -29.91797 -29.79543 -29.78042 -26.47338 -24.84675 -23.98945 -22.36423
 -22.35047 -20.46466 -17.02937 -16.87356 -16.56914 -16.44427 -16.06109 -15.17775
 -15.17151 -15.16422 -15.15675 -13.64205 -11.99477 -11.26365 -10.55046 -10.53970
 -10.45458 -10.41346 -10.39018 -10.33602 -10.30863 -10.23011 -10.21572  -9.95655
  -9.77987  -9.63875  -9.58292  -9.41614  -9.37459  -9.19141  -9.17721  -9.09350
  -9.08557  -9.08330  -9.07084  -9.06898  -8.97001  -8.95830  -8.93917  -8.91303
  -8.29753  -8.29415  -8.28417  -8.27819  -8.05991  -8.01500  -8.00033  -7.59546
  -7.59523  -7.58149  -7.58018  -6.88271  -6.24158  -5.73577  -5.32782  -5.31576
  -5.30919  -4.86107  -3.96558  -3.95124  -3.77835   1.74539   1.75978   4.51582
   4.53669   4.61049   4.61972   4.65909   4.74388   4.97072   5.02513   5.16399
   5.35173   5.39800   5.82911   5.87148   5.99888   6.00388   6.00765   6.01699
   6.02300   6.07697   6.14438   6.21927   6.26002   6.26363   6.27165   6.28041
   6.76223   6.77652   6.85885   7.09216   7.09693   7.15631   7.18880   7.23173
   7.29193   7.44808   7.46246   8.51046   8.62189   8.95635   8.95990   8.97151
   8.97351   9.20051   9.20125   9.21489   9.25769   9.36953   9.42735   9.62866
   9.71925   9.79104   9.81860  10.18532  10.42486  10.78229  10.78500  10.79481
  10.80106  11.11200  11.37616  11.39057  28.62788  30.47649  30.65273


              NET ATOMIC CHARGES AND DIPOLE CONTRIBUTIONS

  ATOM NO.   TYPE          CHARGE      No. of ELECS.   s-Pop       p-Pop       d-Pop       
    1         Ni           0.826077        9.1739     0.80027     0.36925     8.00440
    2          C          -0.356732        4.3567     0.95486     3.40187
    3          C           0.216422        3.7836     1.08797     2.69561
    4          C           0.206688        3.7933     1.08460     2.70871
    5          C           0.200434        3.7996     1.09112     2.70845
    6          N          -0.308669        5.3087     1.83609     3.47258
    7          N          -0.303362        5.3034     1.83832     3.46505
    8          N          -0.318320        5.3183     1.83640     3.48192
    9          C          -0.475062        4.4751     0.95013     3.52493
   10          C           0.260460        3.7395     1.08983     2.64971
   11          C           0.259942        3.7401     1.08978     2.65028
   12          C           0.260167        3.7398     1.08976     2.65007
   13          N          -0.434885        5.4349     1.83821     3.59667
   14          N          -0.434622        5.4346     1.83817     3.59645
   15          N          -0.436001        5.4360     1.83821     3.59779
   16          C          -0.475053        4.4751     0.95013     3.52493
   17          C           0.260785        3.7392     1.08997     2.64924
   18          C           0.259696        3.7403     1.08965     2.65065
   19          C           0.260110        3.7399     1.08975     2.65014
   20          N          -0.434969        5.4350     1.83817     3.59680
   21          N          -0.433623        5.4336     1.83815     3.59548
   22          N          -0.436946        5.4369     1.83831     3.59863
   23          C          -0.355346        4.3553     0.95568     3.39967
   24          C           0.209388        3.7906     1.08731     2.70330
   25          C           0.212127        3.7879     1.08613     2.70174
   26          C           0.200702        3.7993     1.09146     2.70783
   27          N          -0.311419        5.3114     1.83616     3.47526
   28          N          -0.317243        5.3172     1.83870     3.47854
   29          N          -0.303929        5.3039     1.83616     3.46777
   30          S          -0.536417        6.5364     1.88897     4.58852     0.05892
   31          C          -0.222963        4.2230     1.07538     3.14759
   32          C          -0.434075        4.4341     1.05209     3.38198
   33          H           0.121399        0.8786     0.87860
   34          H           0.146128        0.8539     0.85387
   35          H           0.164183        0.8358     0.83582
   36          H           0.128116        0.8719     0.87188
   37          H           0.136810        0.8632     0.86319
 DIPOLE           X         Y         Z       TOTAL
 POINT-CHG.    -1.612    75.767     1.624    75.801
 HYBRID         0.025     0.078     0.549     0.555
 SUM           -1.586    75.845     2.173    75.893


          ATOMIC ORBITAL ELECTRON POPULATIONS

     Atom    s        px        py        pz      x^2-y^2     xz        z^2       yz        xy
    1 Ni   0.80027   0.15653   0.16548   0.04724   1.97886   1.53990   1.79188   1.45453   1.23923
    2  C   0.95486   1.45799   1.01372   0.93016
    3  C   1.08797   0.88192   0.90372   0.90997
    4  C   1.08460   0.89534   0.92268   0.89070
    5  C   1.09112   0.89951   0.89211   0.91683
    6  N   1.83609   1.17850   1.17987   1.11421
    7  N   1.83832   1.17508   1.09461   1.19535
    8  N   1.83640   1.18597   1.17172   1.12423
    9  C   0.95013   1.47428   1.11341   0.93724
   10  C   1.08983   0.87398   0.88563   0.89009
   11  C   1.08978   0.87445   0.88660   0.88923
   12  C   1.08976   0.87342   0.88363   0.89302
   13  N   1.83821   1.21760   1.15548   1.22359
   14  N   1.83817   1.23766   1.22110   1.13768
   15  N   1.83821   1.23430   1.20139   1.16209
   16  C   0.95013   1.37858   1.20736   0.93898
   17  C   1.08997   0.87750   0.88332   0.88843
   18  C   1.08965   0.87653   0.88131   0.89281
   19  C   1.08975   0.87701   0.88261   0.89052
   20  N   1.83817   1.22038   1.20747   1.16894
   21  N   1.83815   1.20275   1.17173   1.22100
   22  N   1.83831   1.23677   1.22781   1.13406
   23  C   0.95568   1.47754   0.98025   0.94188
   24  C   1.08731   0.88544   0.91361   0.90425
   25  C   1.08613   0.88963   0.92262   0.88948
   26  C   1.09146   0.89826   0.88611   0.92346
   27  N   1.83616   1.17992   1.20246   1.09289
   28  N   1.83870   1.18661   1.10553   1.18640
   29  N   1.83616   1.18208   1.13477   1.15092
   30  S   1.88897   1.95210   1.46763   1.16880   0.01256   0.00447   0.02205   0.01845   0.00140
   31  C   1.07538   1.05104   1.08374   1.01280
   32  C   1.05209   1.09760   1.14355   1.14084
   33  H   0.87860
   34  H   0.85387
   35  H   0.83582
   36  H   0.87188
   37  H   0.86319


                    (SZ)    =    1.000000
                    (S**2)  =    2.001788


          ATOMIC ORBITAL SPIN POPULATIONS

    Atom   Total    s     px     py     pz   x^2-y^2  xz     z^2    yz     xy
         Atomic
    1 Ni  2.0425  0.033  0.006  0.007  0.002  0.021  0.460  0.208  0.545  0.761
    2  C -0.0088 -0.001 -0.006 -0.001 -0.000
    3  C -0.0007 -0.000 -0.000 -0.000 -0.000
    4  C -0.0015 -0.000 -0.001 -0.000 -0.000
    5  C  0.0005  0.000  0.000  0.000  0.000
    6  N -0.0007 -0.000 -0.001 -0.000 -0.000
    7  N  0.0006  0.000  0.000  0.000  0.000
    8  N  0.0005  0.000  0.000  0.000  0.000
    9  C  0.0000  0.000 -0.000  0.000  0.000
   10  C -0.0000  0.000  0.000 -0.000 -0.000
   11  C  0.0000 -0.000  0.000  0.000  0.000
   12  C  0.0000 -0.000  0.000 -0.000  0.000
   13  N -0.0000 -0.000 -0.000  0.000  0.000
   14  N -0.0000 -0.000 -0.000  0.000 -0.000
   15  N  0.0000  0.000 -0.000  0.000  0.000
   16  C  0.0000  0.000  0.000 -0.000  0.000
   17  C  0.0000 -0.000  0.000 -0.000 -0.000
   18  C -0.0000 -0.000 -0.000  0.000 -0.000
   19  C  0.0000 -0.000 -0.000  0.000 -0.000
   20  N -0.0000 -0.000  0.000 -0.000 -0.000
   21  N  0.0000 -0.000  0.000 -0.000  0.000
   22  N -0.0000  0.000 -0.000 -0.000  0.000
   23  C -0.0087 -0.001 -0.006 -0.001 -0.000
   24  C -0.0003 -0.000 -0.000 -0.000 -0.000
   25  C -0.0020 -0.000 -0.001 -0.000 -0.000
   26  C  0.0004  0.000  0.000  0.000  0.000
   27  N -0.0006 -0.000 -0.001 -0.000 -0.000
   28  N  0.0013  0.000  0.001  0.000  0.000
   29  N  0.0000 -0.000 -0.000  0.000  0.000
   30  S -0.0225 -0.001  0.002 -0.021 -0.003  0.000  0.000 -0.000 -0.000 -0.000
   31  C -0.0000 -0.000  0.000 -0.000  0.000
   32  C -0.0000 -0.000  0.000  0.000 -0.000
   33  H -0.0000 -0.000
   34  H  0.0000  0.000
   35  H -0.0000 -0.000
   36  H -0.0002 -0.000
   37  H -0.0001 -0.000

 **********************
 *                    *
 * JOB ENDED NORMALLY *
 *                    *
 **********************



 TOTAL JOB TIME:            18.84 SECONDS

 == MOPAC DONE ==
