 *******************************************************************************
 ** Site#: 26130        For non-commercial use only     Version 16.299L 64BITS**
 *******************************************************************************
 ** Cite this program as: MOPAC2016, Version: 16.299L, James J. P. Stewart,   **
 ** Stewart Computational Chemistry, web: HTTP://OpenMOPAC.net. Days left: 350**
 *******************************************************************************
 **                                                                           **
 **                                MOPAC2016                                  **
 **                                                                           **
 *******************************************************************************

                              PM7 CALCULATION RESULTS


 *******************************************************************************
 *  CALCULATION DONE:                                Thu Nov 10 15:54:16 2016  *
 *  PM7        - The PM7 Hamiltonian to be used
 *  SINGLET    - SPIN STATE DEFINED AS A SINGLET
 *  UHF        - UNRESTRICTED HARTREE-FOCK CALCULATION
 *
 *
 *
 *                 CHARGE ON SYSTEM =    -3
 *
 *
 *
 *  XYZ        - CARTESIAN COORDINATE SYSTEM TO BE USED
 *  EF         - USE EF ROUTINE FOR MINIMUM SEARCH
 *  T=         - A TIME OF 172800.0 SECONDS REQUESTED
 *  DUMP=N     - RESTART FILE WRITTEN EVERY  7200.000 SECONDS
 *  HESSIAN    - WRITE OUT HESSIAN FROM GEOMERY OPTIMIZATION
 *******************************************************************************
 EF PM7 XYZ HESSIAN SINGLET UHF CHARGE=-3
 1002_N_0_1

   ATOM   CHEMICAL          X               Y               Z
  NUMBER   SYMBOL      (ANGSTROMS)     (ANGSTROMS)     (ANGSTROMS)
 
     1      Ni          0.00000000  *   0.00000000  *   0.00000000  *
     2       C         -1.51320700  *   1.51321000  *  -0.00000200  *
     3       C         -2.45571200  *   1.25389700  *   1.09065200  *
     4       C         -2.22237000  *   1.48749300  *  -1.28131800  *
     5       C         -0.88666800  *   2.82336600  *   0.19065800  *
     6       N         -0.39054700  *   3.85823900  *   0.34137300  *
     7       N         -2.78208800  *   1.46631400  *  -2.29415500  *
     8       N         -3.20004800  *   1.04806900  *   1.95285400  *
     9       C         -1.51321100  *  -1.51320600  *   0.00000000  *
    10       C         -0.88256600  *  -2.82704400  *  -0.14561200  *
    11       C         -2.43023600  *  -1.27962600  *  -1.11796500  *
    12       C         -2.25195700  *  -1.45807700  *   1.26357700  *
    13       N         -2.83512300  *  -1.41366200  *   2.26245500  *
    14       N         -3.15426500  *  -1.09413800  *  -2.00167900  *
    15       N         -0.38320500  *  -3.86491300  *  -0.26077500  *
    16       C          1.51320600  *  -1.51321100  *  -0.00000100  *
    17       C          2.82786000  *  -0.88174900  *   0.13425700  *
    18       C          1.45060600  *  -2.25925600  *  -1.25890400  *
    19       C          1.28628000  *  -2.42375400  *   1.12464500  *
    20       N          1.10605700  *  -3.14272800  *   2.01369400  *
    21       N          1.40027200  *  -2.84813000  *  -2.25402600  *
    22       N          3.86638200  *  -0.38173600  *   0.24035000  *
    23       C          1.51320700  *   1.51321000  *   0.00000200  *
    24       C          2.68674400  *   1.02286500  *  -0.72626000  *
    25       C          1.88370100  *   1.82616200  *   1.38207900  *
    26       C          0.99430200  *   2.71573100  *  -0.65581400  *
    27       N          0.58326800  *   3.66551800  *  -1.17424200  *
    28       N          2.17571300  *   2.07268900  *   2.47456500  *
    29       N          3.61371800  *   0.63439900  *  -1.30037500  *
    30       S         -0.02276900  *   0.01378300  *   2.22845500  *
    31       C         -0.02276900  *   0.01378300  *   4.04584300  *
    32       C         -1.24353300  *   0.75275500  *   4.57277700  *
    33       H         -1.23315500  *   0.74643000  *   5.68301600  *
    34       H         -2.17279100  *   0.25672600  *   4.22043500  *
    35       H         -1.23494600  *   1.80610300  *   4.22043600  *
    36       H          0.90141000  *   0.51100700  *   4.40880400  *
    37       H         -0.03474800  *  -1.03553800  *   4.40882500  *
 


          CARTESIAN COORDINATES 

    NO.       ATOM         X         Y         Z

     1        Ni        0.0000    0.0000    0.0000
     2         C       -1.5132    1.5132   -0.0000
     3         C       -2.4557    1.2539    1.0907
     4         C       -2.2224    1.4875   -1.2813
     5         C       -0.8867    2.8234    0.1907
     6         N       -0.3905    3.8582    0.3414
     7         N       -2.7821    1.4663   -2.2942
     8         N       -3.2000    1.0481    1.9529
     9         C       -1.5132   -1.5132    0.0000
    10         C       -0.8826   -2.8270   -0.1456
    11         C       -2.4302   -1.2796   -1.1180
    12         C       -2.2520   -1.4581    1.2636
    13         N       -2.8351   -1.4137    2.2625
    14         N       -3.1543   -1.0941   -2.0017
    15         N       -0.3832   -3.8649   -0.2608
    16         C        1.5132   -1.5132   -0.0000
    17         C        2.8279   -0.8817    0.1343
    18         C        1.4506   -2.2593   -1.2589
    19         C        1.2863   -2.4238    1.1246
    20         N        1.1061   -3.1427    2.0137
    21         N        1.4003   -2.8481   -2.2540
    22         N        3.8664   -0.3817    0.2404
    23         C        1.5132    1.5132    0.0000
    24         C        2.6867    1.0229   -0.7263
    25         C        1.8837    1.8262    1.3821
    26         C        0.9943    2.7157   -0.6558
    27         N        0.5833    3.6655   -1.1742
    28         N        2.1757    2.0727    2.4746
    29         N        3.6137    0.6344   -1.3004
    30         S       -0.0228    0.0138    2.2285
    31         C       -0.0228    0.0138    4.0458
    32         C       -1.2435    0.7528    4.5728
    33         H       -1.2332    0.7464    5.6830
    34         H       -2.1728    0.2567    4.2204
    35         H       -1.2349    1.8061    4.2204
    36         H        0.9014    0.5110    4.4088
    37         H       -0.0347   -1.0355    4.4088

 General Reference for PM7:
 "Optimization of Parameters for Semiempirical Methods VI: More Modifications to the 
 NDDO Approximations and Re-optimization of Parameters", J. J. P. Stewart, J. Mol. Mod., 1:32, 19 (2013)
 http://www.springerlink.com/openurl.asp?genre=article&id=doi:10.1007/s00894-012-1667-x

           Empirical Formula: C18 H5 N12 Ni S  =    37 atoms



      MOLECULAR POINT GROUP   :   C1  


 SINGLET STATE CALCULATION


          UHF CALCULATION, NO. OF ALPHA ELECTRONS =   78
                           NO. OF BETA  ELECTRONS =   78

          Geometry optimization using EF

          DIAGONAL MATRIX USED AS START HESSIAN

 CYCLE:     1 TIME:   0.555 TIME LEFT:  2.00D  GRAD.:   457.341 HEAT:  618.5069
 CYCLE:     2 TIME:   0.059 TIME LEFT:  2.00D  GRAD.:   522.702 HEAT:  585.6938
 CYCLE:     3 TIME:   0.062 TIME LEFT:  2.00D  GRAD.:   194.035 HEAT:  526.8339
 CYCLE:     4 TIME:   0.066 TIME LEFT:  2.00D  GRAD.:   582.664 HEAT:  516.3799
 CYCLE:     5 TIME:   0.062 TIME LEFT:  2.00D  GRAD.:   269.165 HEAT:  475.1727
 CYCLE:     6 TIME:   0.172 TIME LEFT:  2.00D  GRAD.:   193.050 HEAT:  467.2843
 CYCLE:     7 TIME:   0.113 TIME LEFT:  2.00D  GRAD.:   227.550 HEAT:  466.8526
 CYCLE:     8 TIME:   0.066 TIME LEFT:  2.00D  GRAD.:    59.959 HEAT:  459.8888
 CYCLE:     9 TIME:   0.059 TIME LEFT:  2.00D  GRAD.:   210.440 HEAT:  458.4513
 CYCLE:    10 TIME:   0.062 TIME LEFT:  2.00D  GRAD.:   218.506 HEAT:  455.3347
 CYCLE:    11 TIME:   0.129 TIME LEFT:  2.00D  GRAD.:   104.039 HEAT:  450.6753
 CYCLE:    12 TIME:   0.164 TIME LEFT:  2.00D  GRAD.:    62.247 HEAT:  449.7182
 CYCLE:    13 TIME:   0.051 TIME LEFT:  2.00D  GRAD.:    66.180 HEAT:  449.2433
 CYCLE:    14 TIME:   0.059 TIME LEFT:  2.00D  GRAD.:    48.266 HEAT:  448.5163
 CYCLE:    15 TIME:   0.051 TIME LEFT:  2.00D  GRAD.:    38.617 HEAT:  447.5807
 CYCLE:    16 TIME:   0.105 TIME LEFT:  2.00D  GRAD.:    77.603 HEAT:  447.1442
 CYCLE:    17 TIME:   0.051 TIME LEFT:  2.00D  GRAD.:    45.087 HEAT:  446.0491
 CYCLE:    18 TIME:   0.051 TIME LEFT:  2.00D  GRAD.:    41.243 HEAT:  444.8845
 CYCLE:    19 TIME:   0.055 TIME LEFT:  2.00D  GRAD.:   130.236 HEAT:  444.5705
 CYCLE:    20 TIME:   0.055 TIME LEFT:  2.00D  GRAD.:    48.801 HEAT:  441.9758
 CYCLE:    21 TIME:   0.074 TIME LEFT:  2.00D  GRAD.:   109.222 HEAT:  440.0599
 CYCLE:    22 TIME:   0.117 TIME LEFT:  2.00D  GRAD.:   173.663 HEAT:  439.7638
 CYCLE:    23 TIME:   0.062 TIME LEFT:  2.00D  GRAD.:   136.771 HEAT:  438.4837
 CYCLE:    24 TIME:   0.066 TIME LEFT:  2.00D  GRAD.:   171.772 HEAT:  436.3793
 CYCLE:    25 TIME:   0.117 TIME LEFT:  2.00D  GRAD.:   129.431 HEAT:  434.5286
 CYCLE:    26 TIME:   0.113 TIME LEFT:  2.00D  GRAD.:    59.464 HEAT:  433.2462
 CYCLE:    27 TIME:   0.055 TIME LEFT:  2.00D  GRAD.:    48.441 HEAT:  432.6582
 CYCLE:    28 TIME:   0.051 TIME LEFT:  2.00D  GRAD.:    34.473 HEAT:  431.7703
 CYCLE:    29 TIME:   0.117 TIME LEFT:  2.00D  GRAD.:    96.862 HEAT:  431.7494
 CYCLE:    30 TIME:   0.055 TIME LEFT:  2.00D  GRAD.:    28.458 HEAT:  430.3004
 CYCLE:    31 TIME:   0.059 TIME LEFT:  2.00D  GRAD.:    33.944 HEAT:  428.7663
 CYCLE:    32 TIME:   0.062 TIME LEFT:  2.00D  GRAD.:    93.037 HEAT:  426.3064
 CYCLE:    33 TIME:   0.062 TIME LEFT:  2.00D  GRAD.:   100.439 HEAT:  422.8806
 CYCLE:    34 TIME:   0.062 TIME LEFT:  2.00D  GRAD.:   103.964 HEAT:  416.5154
 CYCLE:    35 TIME:   0.258 TIME LEFT:  2.00D  GRAD.:   173.189 HEAT:  416.3278
 CYCLE:    36 TIME:   0.062 TIME LEFT:  2.00D  GRAD.:   128.670 HEAT:  413.8074
 CYCLE:    37 TIME:   0.066 TIME LEFT:  2.00D  GRAD.:    68.406 HEAT:  410.8542
 CYCLE:    38 TIME:   0.062 TIME LEFT:  2.00D  GRAD.:    71.311 HEAT:  407.4549
 CYCLE:    39 TIME:   0.062 TIME LEFT:  2.00D  GRAD.:   118.206 HEAT:  400.7512
 CYCLE:    40 TIME:   0.066 TIME LEFT:  2.00D  GRAD.:   129.358 HEAT:  387.3586
 CYCLE:    41 TIME:   0.066 TIME LEFT:  2.00D  GRAD.:   155.429 HEAT:  373.1501
 CYCLE:    42 TIME:   0.133 TIME LEFT:  2.00D  GRAD.:   172.129 HEAT:  369.8447
 CYCLE:    43 TIME:   0.066 TIME LEFT:  2.00D  GRAD.:   139.673 HEAT:  362.8985
 CYCLE:    44 TIME:   0.094 TIME LEFT:  2.00D  GRAD.:   246.798 HEAT:  354.3484
 CYCLE:    45 TIME:   0.062 TIME LEFT:  2.00D  GRAD.:   365.496 HEAT:  354.1216
 CYCLE:    46 TIME:   0.121 TIME LEFT:  2.00D  GRAD.:   184.939 HEAT:  343.6644
 CYCLE:    47 TIME:   0.164 TIME LEFT:  2.00D  GRAD.:   116.111 HEAT:  338.4247
 CYCLE:    48 TIME:   0.086 TIME LEFT:  2.00D  GRAD.:   112.439 HEAT:  337.8559
 CYCLE:    49 TIME:   0.082 TIME LEFT:  2.00D  GRAD.:   133.461 HEAT:  336.5352
 CYCLE:    50 TIME:   0.090 TIME LEFT:  2.00D  GRAD.:   118.496 HEAT:  335.1597
 CYCLE:    51 TIME:   0.082 TIME LEFT:  2.00D  GRAD.:    80.945 HEAT:  332.5996
 CYCLE:    52 TIME:   0.160 TIME LEFT:  2.00D  GRAD.:    89.319 HEAT:  331.9272
 CYCLE:    53 TIME:   0.082 TIME LEFT:  2.00D  GRAD.:    76.913 HEAT:  330.8416
 CYCLE:    54 TIME:   0.082 TIME LEFT:  2.00D  GRAD.:   114.104 HEAT:  330.8354
 CYCLE:    55 TIME:   0.082 TIME LEFT:  2.00D  GRAD.:   119.434 HEAT:  329.5821
 CYCLE:    56 TIME:   0.078 TIME LEFT:  2.00D  GRAD.:   129.101 HEAT:  328.8803
 CYCLE:    57 TIME:   0.090 TIME LEFT:  2.00D  GRAD.:   136.270 HEAT:  328.0299
 CYCLE:    58 TIME:   0.090 TIME LEFT:  2.00D  GRAD.:   124.844 HEAT:  326.7196
 CYCLE:    59 TIME:   0.066 TIME LEFT:  2.00D  GRAD.:    71.195 HEAT:  324.5099
 CYCLE:    60 TIME:   0.090 TIME LEFT:  2.00D  GRAD.:    99.297 HEAT:  323.9486
 CYCLE:    61 TIME:   0.070 TIME LEFT:  2.00D  GRAD.:    68.696 HEAT:  321.4647
 CYCLE:    62 TIME:   0.168 TIME LEFT:  2.00D  GRAD.:   101.122 HEAT:  321.1294
 CYCLE:    63 TIME:   0.082 TIME LEFT:  2.00D  GRAD.:    40.304 HEAT:  318.8081
 CYCLE:    64 TIME:   0.223 TIME LEFT:  2.00D  GRAD.:    62.371 HEAT:  318.5587
 CYCLE:    65 TIME:   0.070 TIME LEFT:  2.00D  GRAD.:    23.699 HEAT:  317.5942
 CYCLE:    66 TIME:   0.082 TIME LEFT:  2.00D  GRAD.:    55.529 HEAT:  316.7954
 CYCLE:    67 TIME:   0.082 TIME LEFT:  2.00D  GRAD.:    34.207 HEAT:  314.9553
 CYCLE:    68 TIME:   0.082 TIME LEFT:  2.00D  GRAD.:   100.132 HEAT:  313.1803
 CYCLE:    69 TIME:   0.082 TIME LEFT:  2.00D  GRAD.:    63.680 HEAT:  309.5445
 CYCLE:    70 TIME:   0.094 TIME LEFT:  2.00D  GRAD.:   167.158 HEAT:  309.0137
 CYCLE:    71 TIME:   0.090 TIME LEFT:  2.00D  GRAD.:    97.785 HEAT:  302.7426
 CYCLE:    72 TIME:   0.246 TIME LEFT:  2.00D  GRAD.:   158.010 HEAT:  302.4647
 CYCLE:    73 TIME:   0.082 TIME LEFT:  2.00D  GRAD.:    79.671 HEAT:  300.0264
 CYCLE:    74 TIME:   0.086 TIME LEFT:  2.00D  GRAD.:   125.909 HEAT:  298.9280
 CYCLE:    75 TIME:   0.086 TIME LEFT:  2.00D  GRAD.:   106.878 HEAT:  296.1669
 CYCLE:    76 TIME:   0.168 TIME LEFT:  2.00D  GRAD.:   142.376 HEAT:  295.9497
 CYCLE:    77 TIME:   0.074 TIME LEFT:  2.00D  GRAD.:    86.237 HEAT:  293.1999
 CYCLE:    78 TIME:   0.168 TIME LEFT:  2.00D  GRAD.:    94.880 HEAT:  292.5482
 CYCLE:    79 TIME:   0.078 TIME LEFT:  2.00D  GRAD.:    37.542 HEAT:  290.7159
 CYCLE:    80 TIME:   0.082 TIME LEFT:  2.00D  GRAD.:    63.700 HEAT:  289.1868
 CYCLE:    81 TIME:   0.070 TIME LEFT:  2.00D  GRAD.:    41.293 HEAT:  286.5494
 CYCLE:    82 TIME:   0.090 TIME LEFT:  2.00D  GRAD.:   112.943 HEAT:  284.1719
 CYCLE:    83 TIME:   0.086 TIME LEFT:  2.00D  GRAD.:    67.044 HEAT:  279.3661
 CYCLE:    84 TIME:   0.086 TIME LEFT:  2.00D  GRAD.:    95.737 HEAT:  277.4550
 CYCLE:    85 TIME:   0.090 TIME LEFT:  2.00D  GRAD.:    81.568 HEAT:  274.3197
 CYCLE:    86 TIME:   0.238 TIME LEFT:  2.00D  GRAD.:    80.814 HEAT:  273.3915
 CYCLE:    87 TIME:   0.086 TIME LEFT:  2.00D  GRAD.:    64.837 HEAT:  272.2880
 CYCLE:    88 TIME:   0.082 TIME LEFT:  2.00D  GRAD.:    33.430 HEAT:  270.9642
 CYCLE:    89 TIME:   0.078 TIME LEFT:  2.00D  GRAD.:    26.048 HEAT:  269.7312
 CYCLE:    90 TIME:   0.086 TIME LEFT:  2.00D  GRAD.:    37.927 HEAT:  267.9338
 CYCLE:    91 TIME:   0.078 TIME LEFT:  2.00D  GRAD.:    42.757 HEAT:  265.5108
 CYCLE:    92 TIME:   0.090 TIME LEFT:  2.00D  GRAD.:    31.917 HEAT:  263.1766
 CYCLE:    93 TIME:   0.078 TIME LEFT:  2.00D  GRAD.:    59.025 HEAT:  261.5778
 CYCLE:    94 TIME:   0.066 TIME LEFT:  2.00D  GRAD.:    52.342 HEAT:  259.5780
 CYCLE:    95 TIME:   0.062 TIME LEFT:  2.00D  GRAD.:    48.510 HEAT:  257.8305
 CYCLE:    96 TIME:   0.062 TIME LEFT:  2.00D  GRAD.:    48.025 HEAT:  255.9792
 CYCLE:    97 TIME:   0.059 TIME LEFT:  2.00D  GRAD.:    45.761 HEAT:  254.2183
 CYCLE:    98 TIME:   0.062 TIME LEFT:  2.00D  GRAD.:    33.591 HEAT:  252.5724
 CYCLE:    99 TIME:   0.062 TIME LEFT:  2.00D  GRAD.:    30.844 HEAT:  250.9672
 CYCLE:   100 TIME:   0.055 TIME LEFT:  2.00D  GRAD.:    34.722 HEAT:  249.6439
 CYCLE:   101 TIME:   0.062 TIME LEFT:  2.00D  GRAD.:    46.318 HEAT:  248.1799
 CYCLE:   102 TIME:   0.055 TIME LEFT:  2.00D  GRAD.:    34.979 HEAT:  246.5319
 CYCLE:   103 TIME:   0.070 TIME LEFT:  2.00D  GRAD.:    57.305 HEAT:  245.1859
 CYCLE:   104 TIME:   0.055 TIME LEFT:  2.00D  GRAD.:    29.492 HEAT:  243.3751
 CYCLE:   105 TIME:   0.055 TIME LEFT:  2.00D  GRAD.:    44.030 HEAT:  242.0286
 CYCLE:   106 TIME:   0.059 TIME LEFT:  2.00D  GRAD.:    40.762 HEAT:  240.6202
 CYCLE:   107 TIME:   0.059 TIME LEFT:  2.00D  GRAD.:    31.331 HEAT:  239.0463
 CYCLE:   108 TIME:   0.055 TIME LEFT:  2.00D  GRAD.:    25.718 HEAT:  237.5672
 CYCLE:   109 TIME:   0.059 TIME LEFT:  2.00D  GRAD.:    42.856 HEAT:  236.1973
 CYCLE:   110 TIME:   0.059 TIME LEFT:  2.00D  GRAD.:    31.241 HEAT:  234.8309
 CYCLE:   111 TIME:   0.059 TIME LEFT:  2.00D  GRAD.:    32.431 HEAT:  233.6043
 CYCLE:   112 TIME:   0.059 TIME LEFT:  2.00D  GRAD.:    25.875 HEAT:  232.4043
 CYCLE:   113 TIME:   0.059 TIME LEFT:  2.00D  GRAD.:    27.032 HEAT:  231.2110
 CYCLE:   114 TIME:   0.059 TIME LEFT:  2.00D  GRAD.:    23.385 HEAT:  230.0383
 CYCLE:   115 TIME:   0.059 TIME LEFT:  2.00D  GRAD.:    19.562 HEAT:  228.7377
 CYCLE:   116 TIME:   0.062 TIME LEFT:  2.00D  GRAD.:    22.515 HEAT:  227.3579
 CYCLE:   117 TIME:   0.070 TIME LEFT:  2.00D  GRAD.:    48.760 HEAT:  225.8119
 CYCLE:   118 TIME:   0.062 TIME LEFT:  2.00D  GRAD.:    61.164 HEAT:  223.7379
 CYCLE:   119 TIME:   0.066 TIME LEFT:  2.00D  GRAD.:   134.110 HEAT:  221.9956
 CYCLE:   120 TIME:   0.055 TIME LEFT:  2.00D  GRAD.:    80.742 HEAT:  218.6383
 CYCLE:   121 TIME:   0.051 TIME LEFT:  2.00D  GRAD.:    75.646 HEAT:  215.5913
 CYCLE:   122 TIME:   0.059 TIME LEFT:  2.00D  GRAD.:   103.588 HEAT:  213.0135
 CYCLE:   123 TIME:   0.062 TIME LEFT:  2.00D  GRAD.:    70.161 HEAT:  211.4808
 CYCLE:   124 TIME:   0.066 TIME LEFT:  2.00D  GRAD.:    88.115 HEAT:  209.6825
 CYCLE:   125 TIME:   0.059 TIME LEFT:  2.00D  GRAD.:   101.358 HEAT:  208.9850
 CYCLE:   126 TIME:   0.055 TIME LEFT:  2.00D  GRAD.:    54.654 HEAT:  206.6470
 CYCLE:   127 TIME:   0.062 TIME LEFT:  2.00D  GRAD.:    55.821 HEAT:  205.3499
 CYCLE:   128 TIME:   0.062 TIME LEFT:  2.00D  GRAD.:    47.200 HEAT:  203.8232
 CYCLE:   129 TIME:   0.066 TIME LEFT:  2.00D  GRAD.:    74.899 HEAT:  203.2060
 CYCLE:   130 TIME:   0.055 TIME LEFT:  2.00D  GRAD.:    39.231 HEAT:  200.8741
 CYCLE:   131 TIME:   0.062 TIME LEFT:  2.00D  GRAD.:    46.840 HEAT:  199.8138
 CYCLE:   132 TIME:   0.059 TIME LEFT:  2.00D  GRAD.:    32.095 HEAT:  198.5995
 CYCLE:   133 TIME:   0.066 TIME LEFT:  2.00D  GRAD.:    41.186 HEAT:  197.8623
 CYCLE:   134 TIME:   0.059 TIME LEFT:  2.00D  GRAD.:    33.335 HEAT:  197.0877
 CYCLE:   135 TIME:   0.074 TIME LEFT:  2.00D  GRAD.:    42.117 HEAT:  196.5694
 CYCLE:   136 TIME:   0.070 TIME LEFT:  2.00D  GRAD.:    30.092 HEAT:  195.8319
 CYCLE:   137 TIME:   0.059 TIME LEFT:  2.00D  GRAD.:    28.733 HEAT:  195.2412
 CYCLE:   138 TIME:   0.059 TIME LEFT:  2.00D  GRAD.:    19.206 HEAT:  194.6428
 CYCLE:   139 TIME:   0.055 TIME LEFT:  2.00D  GRAD.:    15.265 HEAT:  194.1088
 CYCLE:   140 TIME:   0.055 TIME LEFT:  2.00D  GRAD.:    25.068 HEAT:  193.5923
 CYCLE:   141 TIME:   0.059 TIME LEFT:  2.00D  GRAD.:    16.756 HEAT:  193.0523
 CYCLE:   142 TIME:   0.059 TIME LEFT:  2.00D  GRAD.:    18.145 HEAT:  192.5404
 CYCLE:   143 TIME:   0.059 TIME LEFT:  2.00D  GRAD.:    18.130 HEAT:  192.0106
 CYCLE:   144 TIME:   0.059 TIME LEFT:  2.00D  GRAD.:    14.596 HEAT:  191.4725
 CYCLE:   145 TIME:   0.059 TIME LEFT:  2.00D  GRAD.:    12.697 HEAT:  190.9406
 CYCLE:   146 TIME:   0.062 TIME LEFT:  2.00D  GRAD.:    11.568 HEAT:  190.4436
 CYCLE:   147 TIME:   0.059 TIME LEFT:  2.00D  GRAD.:    13.819 HEAT:  189.9879
 CYCLE:   148 TIME:   0.059 TIME LEFT:  2.00D  GRAD.:    15.245 HEAT:  189.5416
 CYCLE:   149 TIME:   0.055 TIME LEFT:  2.00D  GRAD.:    18.484 HEAT:  189.0727
 CYCLE:   150 TIME:   0.059 TIME LEFT:  2.00D  GRAD.:    14.233 HEAT:  188.5558
 CYCLE:   151 TIME:   0.059 TIME LEFT:  2.00D  GRAD.:    18.595 HEAT:  188.0767
 CYCLE:   152 TIME:   0.055 TIME LEFT:  2.00D  GRAD.:    13.945 HEAT:  187.5789
 CYCLE:   153 TIME:   0.055 TIME LEFT:  2.00D  GRAD.:    13.148 HEAT:  187.0709
 CYCLE:   154 TIME:   0.055 TIME LEFT:  2.00D  GRAD.:    11.059 HEAT:  186.5763
 CYCLE:   155 TIME:   0.055 TIME LEFT:  2.00D  GRAD.:    12.641 HEAT:  186.0916
 CYCLE:   156 TIME:   0.055 TIME LEFT:  2.00D  GRAD.:    13.326 HEAT:  185.6100
 CYCLE:   157 TIME:   0.055 TIME LEFT:  2.00D  GRAD.:    12.325 HEAT:  185.1116
 CYCLE:   158 TIME:   0.055 TIME LEFT:  2.00D  GRAD.:    18.044 HEAT:  184.6008
 CYCLE:   159 TIME:   0.062 TIME LEFT:  2.00D  GRAD.:    12.310 HEAT:  184.1054
 CYCLE:   160 TIME:   0.055 TIME LEFT:  2.00D  GRAD.:    17.373 HEAT:  183.6080
 CYCLE:   161 TIME:   0.055 TIME LEFT:  2.00D  GRAD.:     9.407 HEAT:  183.1009
 CYCLE:   162 TIME:   0.055 TIME LEFT:  2.00D  GRAD.:    13.763 HEAT:  182.6489
 CYCLE:   163 TIME:   0.055 TIME LEFT:  2.00D  GRAD.:    12.159 HEAT:  182.1633
 CYCLE:   164 TIME:   0.055 TIME LEFT:  2.00D  GRAD.:    12.231 HEAT:  181.6867
 CYCLE:   165 TIME:   0.059 TIME LEFT:  2.00D  GRAD.:    13.847 HEAT:  181.1950
 CYCLE:   166 TIME:   0.055 TIME LEFT:  2.00D  GRAD.:    16.867 HEAT:  180.6944
 CYCLE:   167 TIME:   0.066 TIME LEFT:  2.00D  GRAD.:    15.627 HEAT:  180.1963
 CYCLE:   168 TIME:   0.055 TIME LEFT:  2.00D  GRAD.:    25.939 HEAT:  179.7791
 CYCLE:   169 TIME:   0.055 TIME LEFT:  2.00D  GRAD.:    14.246 HEAT:  179.2318
 CYCLE:   170 TIME:   0.055 TIME LEFT:  2.00D  GRAD.:    15.947 HEAT:  178.7975
 CYCLE:   171 TIME:   0.062 TIME LEFT:  2.00D  GRAD.:    20.285 HEAT:  178.3535
 CYCLE:   172 TIME:   0.055 TIME LEFT:  2.00D  GRAD.:    15.853 HEAT:  177.8767
 CYCLE:   173 TIME:   0.055 TIME LEFT:  2.00D  GRAD.:    28.915 HEAT:  177.4125
 CYCLE:   174 TIME:   0.059 TIME LEFT:  2.00D  GRAD.:    17.442 HEAT:  176.9114
 CYCLE:   175 TIME:   0.059 TIME LEFT:  2.00D  GRAD.:    21.369 HEAT:  176.4950
 CYCLE:   176 TIME:   0.055 TIME LEFT:  2.00D  GRAD.:    21.586 HEAT:  176.1000
 CYCLE:   177 TIME:   0.262 TIME LEFT:  2.00D  GRAD.:    23.048 HEAT:  175.9838
 CYCLE:   178 TIME:   0.051 TIME LEFT:  2.00D  GRAD.:    13.832 HEAT:  175.8830
 CYCLE:   179 TIME:   0.055 TIME LEFT:  2.00D  GRAD.:    15.189 HEAT:  175.8128
 CYCLE:   180 TIME:   0.055 TIME LEFT:  2.00D  GRAD.:    11.504 HEAT:  175.7065
 CYCLE:   181 TIME:   0.055 TIME LEFT:  2.00D  GRAD.:    13.363 HEAT:  175.5479
 CYCLE:   182 TIME:   0.055 TIME LEFT:  2.00D  GRAD.:    10.361 HEAT:  175.2349
 CYCLE:   183 TIME:   0.062 TIME LEFT:  2.00D  GRAD.:    24.581 HEAT:  174.8348
 CYCLE:   184 TIME:   0.059 TIME LEFT:  2.00D  GRAD.:    22.638 HEAT:  174.4266
 CYCLE:   185 TIME:   0.059 TIME LEFT:  2.00D  GRAD.:    21.119 HEAT:  173.9869
 CYCLE:   186 TIME:   0.059 TIME LEFT:  2.00D  GRAD.:    18.614 HEAT:  173.5898
 CYCLE:   187 TIME:   0.062 TIME LEFT:  2.00D  GRAD.:    22.311 HEAT:  173.2154
 CYCLE:   188 TIME:   0.055 TIME LEFT:  2.00D  GRAD.:    20.511 HEAT:  172.8273
 CYCLE:   189 TIME:   0.066 TIME LEFT:  2.00D  GRAD.:    18.276 HEAT:  172.4411
 CYCLE:   190 TIME:   0.051 TIME LEFT:  2.00D  GRAD.:    29.192 HEAT:  172.1091
 CYCLE:   191 TIME:   0.059 TIME LEFT:  2.00D  GRAD.:    17.909 HEAT:  171.7506
 CYCLE:   192 TIME:   0.051 TIME LEFT:  2.00D  GRAD.:    25.564 HEAT:  171.4212
 CYCLE:   193 TIME:   0.055 TIME LEFT:  2.00D  GRAD.:    15.231 HEAT:  171.0145
 CYCLE:   194 TIME:   0.059 TIME LEFT:  2.00D  GRAD.:    20.638 HEAT:  170.7051
 CYCLE:   195 TIME:   0.051 TIME LEFT:  2.00D  GRAD.:    13.033 HEAT:  170.3629
 CYCLE:   196 TIME:   0.051 TIME LEFT:  2.00D  GRAD.:    18.895 HEAT:  170.0193
 CYCLE:   197 TIME:   0.051 TIME LEFT:  2.00D  GRAD.:    17.808 HEAT:  169.6749
 CYCLE:   198 TIME:   0.059 TIME LEFT:  2.00D  GRAD.:    19.168 HEAT:  169.3356
 CYCLE:   199 TIME:   0.059 TIME LEFT:  2.00D  GRAD.:    17.940 HEAT:  169.0435
 CYCLE:   200 TIME:   0.051 TIME LEFT:  2.00D  GRAD.:    16.363 HEAT:  168.7063
 CYCLE:   201 TIME:   0.051 TIME LEFT:  2.00D  GRAD.:    15.037 HEAT:  168.3739
 CYCLE:   202 TIME:   0.055 TIME LEFT:  2.00D  GRAD.:    18.924 HEAT:  168.0665
 CYCLE:   203 TIME:   0.051 TIME LEFT:  2.00D  GRAD.:    26.791 HEAT:  167.7908
 CYCLE:   204 TIME:   0.055 TIME LEFT:  2.00D  GRAD.:    17.159 HEAT:  167.4248
 CYCLE:   205 TIME:   0.051 TIME LEFT:  2.00D  GRAD.:    14.236 HEAT:  167.1042
 CYCLE:   206 TIME:   0.055 TIME LEFT:  2.00D  GRAD.:    15.742 HEAT:  166.7717
 CYCLE:   207 TIME:   0.051 TIME LEFT:  2.00D  GRAD.:    14.387 HEAT:  166.4336
 CYCLE:   208 TIME:   0.051 TIME LEFT:  2.00D  GRAD.:    15.977 HEAT:  166.1069
 CYCLE:   209 TIME:   0.051 TIME LEFT:  2.00D  GRAD.:    16.973 HEAT:  165.7860
 CYCLE:   210 TIME:   0.059 TIME LEFT:  2.00D  GRAD.:    14.304 HEAT:  165.4802
 CYCLE:   211 TIME:   0.055 TIME LEFT:  2.00D  GRAD.:    20.340 HEAT:  165.2360
 CYCLE:   212 TIME:   0.051 TIME LEFT:  2.00D  GRAD.:    16.523 HEAT:  164.9288
 CYCLE:   213 TIME:   0.051 TIME LEFT:  2.00D  GRAD.:    24.620 HEAT:  164.6965
 CYCLE:   214 TIME:   0.051 TIME LEFT:  2.00D  GRAD.:    18.380 HEAT:  164.4066
 CYCLE:   215 TIME:   0.062 TIME LEFT:  2.00D  GRAD.:    16.468 HEAT:  164.1242
 CYCLE:   216 TIME:   0.055 TIME LEFT:  2.00D  GRAD.:    15.416 HEAT:  163.8374
 CYCLE:   217 TIME:   0.059 TIME LEFT:  2.00D  GRAD.:    23.672 HEAT:  163.6057
 CYCLE:   218 TIME:   0.051 TIME LEFT:  2.00D  GRAD.:    21.266 HEAT:  163.3112
 CYCLE:   219 TIME:   0.051 TIME LEFT:  2.00D  GRAD.:    15.907 HEAT:  163.0597
 CYCLE:   220 TIME:   0.059 TIME LEFT:  2.00D  GRAD.:    12.842 HEAT:  162.7769
 CYCLE:   221 TIME:   0.051 TIME LEFT:  2.00D  GRAD.:    15.201 HEAT:  162.5165
 CYCLE:   222 TIME:   0.051 TIME LEFT:  2.00D  GRAD.:    11.674 HEAT:  162.2653
 CYCLE:   223 TIME:   0.059 TIME LEFT:  2.00D  GRAD.:    19.735 HEAT:  162.0617
 CYCLE:   224 TIME:   0.055 TIME LEFT:  2.00D  GRAD.:    11.290 HEAT:  161.7969
 CYCLE:   225 TIME:   0.051 TIME LEFT:  2.00D  GRAD.:    11.554 HEAT:  161.5763
 CYCLE:   226 TIME:   0.051 TIME LEFT:  2.00D  GRAD.:     8.095 HEAT:  161.3605
 CYCLE:   227 TIME:   0.051 TIME LEFT:  2.00D  GRAD.:    11.487 HEAT:  161.1642
 CYCLE:   228 TIME:   0.051 TIME LEFT:  2.00D  GRAD.:     7.689 HEAT:  160.9572
 CYCLE:   229 TIME:   0.051 TIME LEFT:  2.00D  GRAD.:    12.966 HEAT:  160.7671
 CYCLE:   230 TIME:   0.047 TIME LEFT:  2.00D  GRAD.:    12.167 HEAT:  160.5868
 CYCLE:   231 TIME:   0.059 TIME LEFT:  2.00D  GRAD.:    14.983 HEAT:  160.4130
 CYCLE:   232 TIME:   0.051 TIME LEFT:  2.00D  GRAD.:    16.981 HEAT:  160.2303
 CYCLE:   233 TIME:   0.055 TIME LEFT:  2.00D  GRAD.:    19.766 HEAT:  160.0403
 CYCLE:   234 TIME:   0.051 TIME LEFT:  2.00D  GRAD.:     9.587 HEAT:  159.8186
 CYCLE:   235 TIME:   0.051 TIME LEFT:  2.00D  GRAD.:     9.334 HEAT:  159.6496
 CYCLE:   236 TIME:   0.055 TIME LEFT:  2.00D  GRAD.:     9.905 HEAT:  159.4632
 CYCLE:   237 TIME:   0.051 TIME LEFT:  2.00D  GRAD.:    12.279 HEAT:  159.2454
 CYCLE:   238 TIME:   0.059 TIME LEFT:  2.00D  GRAD.:    11.193 HEAT:  159.0623
 CYCLE:   239 TIME:   0.062 TIME LEFT:  2.00D  GRAD.:     8.742 HEAT:  158.8736
 CYCLE:   240 TIME:   0.055 TIME LEFT:  2.00D  GRAD.:    13.724 HEAT:  158.6774
 CYCLE:   241 TIME:   0.051 TIME LEFT:  2.00D  GRAD.:     6.769 HEAT:  158.4911
 CYCLE:   242 TIME:   0.055 TIME LEFT:  2.00D  GRAD.:     6.557 HEAT:  158.3187
 CYCLE:   243 TIME:   0.066 TIME LEFT:  2.00D  GRAD.:     8.722 HEAT:  158.1480
 CYCLE:   244 TIME:   0.055 TIME LEFT:  2.00D  GRAD.:     7.329 HEAT:  157.9737
 CYCLE:   245 TIME:   0.055 TIME LEFT:  2.00D  GRAD.:    10.710 HEAT:  157.8158
 CYCLE:   246 TIME:   0.047 TIME LEFT:  2.00D  GRAD.:     7.490 HEAT:  157.6527
 CYCLE:   247 TIME:   0.051 TIME LEFT:  2.00D  GRAD.:     7.708 HEAT:  157.5022
 CYCLE:   248 TIME:   0.051 TIME LEFT:  2.00D  GRAD.:    10.848 HEAT:  157.3465
 CYCLE:   249 TIME:   0.051 TIME LEFT:  2.00D  GRAD.:     5.115 HEAT:  157.3207
 CYCLE:   250 TIME:   0.047 TIME LEFT:  2.00D  GRAD.:     6.389 HEAT:  157.3072
 CYCLE:   251 TIME:   0.051 TIME LEFT:  2.00D  GRAD.:     5.983 HEAT:  157.2919
 CYCLE:   252 TIME:   0.051 TIME LEFT:  2.00D  GRAD.:     5.634 HEAT:  157.2712
 CYCLE:   253 TIME:   0.051 TIME LEFT:  2.00D  GRAD.:     4.292 HEAT:  157.2519
 CYCLE:   254 TIME:   0.117 TIME LEFT:  2.00D  GRAD.:    11.564 HEAT:  157.2045
 CYCLE:   255 TIME:   0.055 TIME LEFT:  2.00D  GRAD.:     7.965 HEAT:  157.1800
 CYCLE:   256 TIME:   0.051 TIME LEFT:  2.00D  GRAD.:     7.659 HEAT:  157.1472
 CYCLE:   257 TIME:   0.047 TIME LEFT:  2.00D  GRAD.:     5.942 HEAT:  157.1268
 CYCLE:   258 TIME:   0.051 TIME LEFT:  2.00D  GRAD.:     4.208 HEAT:  157.1219
 CYCLE:   259 TIME:   0.051 TIME LEFT:  2.00D  GRAD.:     3.173 HEAT:  157.1098
 CYCLE:   260 TIME:   0.051 TIME LEFT:  2.00D  GRAD.:     3.192 HEAT:  157.0941
 CYCLE:   261 TIME:   0.055 TIME LEFT:  2.00D  GRAD.:     2.879 HEAT:  157.0701
 CYCLE:   262 TIME:   0.070 TIME LEFT:  2.00D  GRAD.:     7.679 HEAT:  157.0149
 CYCLE:   263 TIME:   0.047 TIME LEFT:  2.00D  GRAD.:     6.319 HEAT:  157.0011
 CYCLE:   264 TIME:   0.051 TIME LEFT:  2.00D  GRAD.:     6.837 HEAT:  156.9888
 CYCLE:   265 TIME:   0.047 TIME LEFT:  2.00D  GRAD.:     4.420 HEAT:  156.9717
 CYCLE:   266 TIME:   0.055 TIME LEFT:  2.00D  GRAD.:     4.223 HEAT:  156.9565
 CYCLE:   267 TIME:   0.047 TIME LEFT:  2.00D  GRAD.:     4.167 HEAT:  156.9491
 CYCLE:   268 TIME:   0.047 TIME LEFT:  2.00D  GRAD.:     5.917 HEAT:  156.9344
 CYCLE:   269 TIME:   0.047 TIME LEFT:  2.00D  GRAD.:     3.406 HEAT:  156.9190
 CYCLE:   270 TIME:   0.051 TIME LEFT:  2.00D  GRAD.:     5.339 HEAT:  156.8834
 CYCLE:   271 TIME:   0.055 TIME LEFT:  2.00D  GRAD.:    11.910 HEAT:  156.7843
 CYCLE:   272 TIME:   0.047 TIME LEFT:  2.00D  GRAD.:     8.580 HEAT:  156.6425
 CYCLE:   273 TIME:   0.051 TIME LEFT:  2.00D  GRAD.:     8.965 HEAT:  156.4468
 CYCLE:   274 TIME:   0.051 TIME LEFT:  2.00D  GRAD.:     8.520 HEAT:  156.4172
 CYCLE:   275 TIME:   0.055 TIME LEFT:  2.00D  GRAD.:     8.329 HEAT:  156.3937
 CYCLE:   276 TIME:   0.047 TIME LEFT:  2.00D  GRAD.:     4.963 HEAT:  156.3751
 CYCLE:   277 TIME:   0.047 TIME LEFT:  2.00D  GRAD.:     5.620 HEAT:  156.3590
 CYCLE:   278 TIME:   0.094 TIME LEFT:  2.00D  GRAD.:     4.595 HEAT:  156.3424
 CYCLE:   279 TIME:   0.047 TIME LEFT:  2.00D  GRAD.:     5.272 HEAT:  156.3234
 CYCLE:   280 TIME:   0.047 TIME LEFT:  2.00D  GRAD.:     4.201 HEAT:  156.3160
 CYCLE:   281 TIME:   0.047 TIME LEFT:  2.00D  GRAD.:     2.117 HEAT:  156.3082
 CYCLE:   282 TIME:   0.055 TIME LEFT:  2.00D  GRAD.:     2.389 HEAT:  156.2945
 CYCLE:   283 TIME:   0.055 TIME LEFT:  2.00D  GRAD.:     4.116 HEAT:  156.2540
 CYCLE:   284 TIME:   0.047 TIME LEFT:  2.00D  GRAD.:     4.787 HEAT:  156.1831
 CYCLE:   285 TIME:   0.051 TIME LEFT:  2.00D  GRAD.:     5.250 HEAT:  156.0644
 CYCLE:   286 TIME:   0.047 TIME LEFT:  2.00D  GRAD.:     6.542 HEAT:  155.9204
 CYCLE:   287 TIME:   0.059 TIME LEFT:  2.00D  GRAD.:     8.887 HEAT:  155.7485
 CYCLE:   288 TIME:   0.055 TIME LEFT:  2.00D  GRAD.:     7.451 HEAT:  155.5844
 CYCLE:   289 TIME:   0.051 TIME LEFT:  2.00D  GRAD.:     5.739 HEAT:  155.4177
 CYCLE:   290 TIME:   0.051 TIME LEFT:  2.00D  GRAD.:     5.384 HEAT:  155.2509
 CYCLE:   291 TIME:   0.051 TIME LEFT:  2.00D  GRAD.:     5.458 HEAT:  155.1009
 CYCLE:   292 TIME:   0.055 TIME LEFT:  2.00D  GRAD.:     4.383 HEAT:  154.9645
 CYCLE:   293 TIME:   0.055 TIME LEFT:  2.00D  GRAD.:     4.525 HEAT:  154.8185
 CYCLE:   294 TIME:   0.047 TIME LEFT:  2.00D  GRAD.:     5.529 HEAT:  154.6707
 CYCLE:   295 TIME:   0.051 TIME LEFT:  2.00D  GRAD.:     4.366 HEAT:  154.6563
 CYCLE:   296 TIME:   0.051 TIME LEFT:  2.00D  GRAD.:     3.974 HEAT:  154.6429
 CYCLE:   297 TIME:   0.047 TIME LEFT:  2.00D  GRAD.:     3.009 HEAT:  154.6344
 CYCLE:   298 TIME:   0.051 TIME LEFT:  2.00D  GRAD.:     4.076 HEAT:  154.6207
 CYCLE:   299 TIME:   0.047 TIME LEFT:  2.00D  GRAD.:     2.842 HEAT:  154.6142
 CYCLE:   300 TIME:   0.047 TIME LEFT:  2.00D  GRAD.:     2.465 HEAT:  154.6045
 CYCLE:   301 TIME:   0.047 TIME LEFT:  2.00D  GRAD.:     2.444 HEAT:  154.5987
 CYCLE:   302 TIME:   0.055 TIME LEFT:  2.00D  GRAD.:     7.632 HEAT:  154.5820
 CYCLE:   303 TIME:   0.047 TIME LEFT:  2.00D  GRAD.:     5.278 HEAT:  154.5726
 CYCLE:   304 TIME:   0.055 TIME LEFT:  2.00D  GRAD.:     4.283 HEAT:  154.5468
 CYCLE:   305 TIME:   0.059 TIME LEFT:  2.00D  GRAD.:     3.757 HEAT:  154.5338
 CYCLE:   306 TIME:   0.094 TIME LEFT:  2.00D  GRAD.:     3.433 HEAT:  154.5167
 CYCLE:   307 TIME:   0.059 TIME LEFT:  2.00D  GRAD.:     4.886 HEAT:  154.5052
 CYCLE:   308 TIME:   0.047 TIME LEFT:  2.00D  GRAD.:     3.549 HEAT:  154.4882
 CYCLE:   309 TIME:   0.051 TIME LEFT:  2.00D  GRAD.:     2.957 HEAT:  154.4892
 CYCLE:   310 TIME:   0.051 TIME LEFT:  2.00D  GRAD.:     2.355 HEAT:  154.4828
 CYCLE:   311 TIME:   0.047 TIME LEFT:  2.00D  GRAD.:     1.525 HEAT:  154.4763
 CYCLE:   312 TIME:   0.059 TIME LEFT:  2.00D  GRAD.:     2.036 HEAT:  154.4666
 CYCLE:   313 TIME:   0.250 TIME LEFT:  2.00D  GRAD.:     8.229 HEAT:  154.4741
 CYCLE:   314 TIME:   0.047 TIME LEFT:  2.00D  GRAD.:     2.711 HEAT:  154.4329
 CYCLE:   315 TIME:   0.102 TIME LEFT:  2.00D  GRAD.:     4.890 HEAT:  154.4287
 CYCLE:   316 TIME:   0.047 TIME LEFT:  2.00D  GRAD.:     2.768 HEAT:  154.4278
 CYCLE:   317 TIME:   0.051 TIME LEFT:  2.00D  GRAD.:     6.366 HEAT:  154.4244
 CYCLE:   318 TIME:   0.051 TIME LEFT:  2.00D  GRAD.:     1.678 HEAT:  154.4188
 CYCLE:   319 TIME:   0.047 TIME LEFT:  2.00D  GRAD.:     2.314 HEAT:  154.4140
 CYCLE:   320 TIME:   0.051 TIME LEFT:  2.00D  GRAD.:     1.860 HEAT:  154.4089
 CYCLE:   321 TIME:   0.059 TIME LEFT:  2.00D  GRAD.:     2.037 HEAT:  154.3938
 CYCLE:   322 TIME:   0.055 TIME LEFT:  2.00D  GRAD.:     3.927 HEAT:  154.3781
 CYCLE:   323 TIME:   0.047 TIME LEFT:  2.00D  GRAD.:     3.082 HEAT:  154.3722
 CYCLE:   324 TIME:   0.051 TIME LEFT:  2.00D  GRAD.:     2.337 HEAT:  154.3716
 CYCLE:   325 TIME:   0.055 TIME LEFT:  2.00D  GRAD.:     1.500 HEAT:  154.3683
 CYCLE:   326 TIME:   0.055 TIME LEFT:  2.00D  GRAD.:     0.962 HEAT:  154.3653

     GRADIENT =  0.96209  IS LESS THAN CUTOFF =  1.00000



 -------------------------------------------------------------------------------
 EF PM7 XYZ HESSIAN SINGLET UHF CHARGE=-3
 1002_N_0_1



     GEOMETRY OPTIMISED USING EIGENVECTOR FOLLOWING (EF).     
     SCF FIELD WAS ACHIEVED                                   


                              PM7 CALCULATION
                                                       MOPAC2016 (Version: 16.299L)
                                                       Thu Nov 10 15:54:38 2016
                                                       No. of days remaining = 350




          FINAL HEAT OF FORMATION =        154.36509 KCAL/MOL =     645.86352 KJ/MOL


          TOTAL ENERGY            =      -5071.32413 EV
          ELECTRONIC ENERGY       =     -26452.24522 EV  POINT GROUP:     C1  
          CORE-CORE REPULSION     =      21380.92110 EV
          COSMO AREA              =        564.12 SQUARE ANGSTROMS
          COSMO VOLUME            =        549.91 CUBIC ANGSTROMS

          GRADIENT NORM           =          0.96209
          IONIZATION POTENTIAL    =          4.166124 EV
          ALPHA SOMO LUMO (EV)    =         -4.166  0.800
          BETA  SOMO LUMO (EV)    =         -4.166  2.347
          NO. OF ALPHA ELECTRONS  =         78
          NO. OF BETA  ELECTRONS  =         78
          MOLECULAR WEIGHT        =        480.0879

          MOLECULAR DIMENSIONS (Angstroms)

            Atom       Atom       Distance
            N    15    N    27    37.30379
            N    22    N    14    33.27020
            N    29    N     6     9.69660


          SCF CALCULATIONS        =        366
 
          WALL-CLOCK TIME         =         22.434 SECONDS
          COMPUTATION TIME        =  1 MINUTE AND 26.826 SECONDS




   ATOM   CHEMICAL          X               Y               Z
  NUMBER   SYMBOL      (ANGSTROMS)     (ANGSTROMS)     (ANGSTROMS)
 
     1      Ni         -0.10098422  *   9.36181764  *  -0.73083863  *
     2       C         -1.83300141  *   9.25727346  *   2.17377827  *
     3       C         -2.65926963  *   8.13332501  *   2.18173504  *
     4       C         -1.49732009  *   9.85356674  *   0.96112419  *
     5       C         -1.34684977  *   9.76645818  *   3.38105395  *
     6       N         -0.95294690  *  10.18678690  *   4.39058598  *
     7       N         -1.38074978  *  10.47775453  *  -0.04573860  *
     8       N         -3.33189932  *   7.18385203  *   2.16273738  *
     9       C        -17.39315438  * -15.35942208  *  -0.97944409  *
    10       C        -17.55310111  * -16.65647433  *  -1.45897164  *
    11       C        -18.45011601  * -14.45596489  *  -1.05255977  *
    12       C        -16.17800774  * -14.96723248  *  -0.42347276  *
    13       N        -15.16197095  * -14.64085746  *   0.04289480  *
    14       N        -19.33603795  * -13.70210441  *  -1.11301535  *
    15       N        -17.68919257  * -17.74192614  *  -1.85904787  *
    16       C         17.65315523  * -12.28539562  *   4.90108110  *
    17       C         18.87672877  * -12.09786955  *   5.53798276  *
    18       C         17.59717862  * -12.37012548  *   3.51238911  *
    19       C         16.48585640  * -12.39017662  *   5.65308422  *
    20       N         15.51051562  * -12.47939370  *   6.28330231  *
    21       N         17.55190923  * -12.44215534  *   2.35073726  *
    22       N         19.90096834  * -11.94246087  *   6.07090584  *
    23       C          1.79234021  *  11.48879999  *  -2.62321953  *
    24       C          1.91865045  *  11.06953877  *  -3.94955413  *
    25       C          1.60596034  *  10.55533052  *  -1.60958749  *
    26       C          1.85410410  *  12.85420397  *  -2.33167528  *
    27       N          1.91973480  *  13.99142112  *  -2.09892205  *
    28       N          1.68300048  *   9.75097238  *  -0.73406996  *
    29       N          2.02835159  *  10.72134903  *  -5.05412143  *
    30       S         -0.60908637  *   7.44549290  *  -1.62634616  *
    31       C         -0.78910236  *   6.19350819  *  -0.31863134  *
    32       C         -0.83338007  *   4.78710800  *  -0.89925201  *
    33       H         -1.01033399  *   4.04878403  *  -0.10314918  *
    34       H          0.10620310  *   4.50712982  *  -1.39098211  *
    35       H         -1.64186940  *   4.65751783  *  -1.62988346  *
    36       H         -1.72443891  *   6.39534758  *   0.25823165  *
    37       H          0.02464604  *   6.27344817  *   0.43346450  *

                             CARTESIAN COORDINATES

   1   Ni       -0.100984215     9.361817640    -0.730838633
   2    C       -1.833001409     9.257273456     2.173778268
   3    C       -2.659269633     8.133325010     2.181735042
   4    C       -1.497320089     9.853566741     0.961124191
   5    C       -1.346849773     9.766458175     3.381053947
   6    N       -0.952946903    10.186786900     4.390585985
   7    N       -1.380749778    10.477754530    -0.045738597
   8    N       -3.331899319     7.183852029     2.162737375
   9    C      -17.393154378   -15.359422076    -0.979444088
  10    C      -17.553101108   -16.656474329    -1.458971642
  11    C      -18.450116011   -14.455964889    -1.052559769
  12    C      -16.178007745   -14.967232476    -0.423472760
  13    N      -15.161970949   -14.640857458     0.042894795
  14    N      -19.336037950   -13.702104407    -1.113015351
  15    N      -17.689192572   -17.741926138    -1.859047867
  16    C       17.653155226   -12.285395616     4.901081098
  17    C       18.876728769   -12.097869550     5.537982760
  18    C       17.597178616   -12.370125478     3.512389109
  19    C       16.485856405   -12.390176625     5.653084219
  20    N       15.510515618   -12.479393697     6.283302313
  21    N       17.551909227   -12.442155344     2.350737257
  22    N       19.900968338   -11.942460874     6.070905843
  23    C        1.792340209    11.488799994    -2.623219533
  24    C        1.918650453    11.069538767    -3.949554133
  25    C        1.605960338    10.555330523    -1.609587494
  26    C        1.854104104    12.854203967    -2.331675283
  27    N        1.919734799    13.991421115    -2.098922055
  28    N        1.683000476     9.750972383    -0.734069960
  29    N        2.028351594    10.721349034    -5.054121435
  30    S       -0.609086367     7.445492904    -1.626346156
  31    C       -0.789102364     6.193508190    -0.318631339
  32    C       -0.833380071     4.787108005    -0.899252015
  33    H       -1.010333987     4.048784028    -0.103149180
  34    H        0.106203100     4.507129816    -1.390982114
  35    H       -1.641869397     4.657517827    -1.629883458
  36    H       -1.724438906     6.395347584     0.258231645
  37    H        0.024646044     6.273448170     0.433464503


           Empirical Formula: C18 H5 N12 Ni S  =    37 atoms

    Hessian matrix from geometry optimization
 1228.8128
   11.9569  782.3611
 -125.7308  115.2131  326.0353
 -233.3319   11.6604   -3.6977 1275.3888
 -143.6119   -1.1363  -12.5131  789.8437 2091.8231
  -66.0045  -66.0038    6.2553 -392.0066  437.1236 2695.7184
  109.6995  117.3262  -73.1658 -516.9462 -324.9323   97.3132 3487.1943
  169.4559  118.3688  -86.6903 -362.9686 -440.4962   19.5770 3200.8741 4221.4253
  -64.5762 -119.8582   60.0089  198.8488   58.9121 -321.5703-1716.1588-1163.6096 1769.9241
 -293.9024  194.4575  111.5347 -314.9165  167.6240  459.0640 -274.9619 -218.8723  217.0311 1246.4062
   90.3515  -71.3350   56.8316   22.0598 -354.1282  100.7259  -39.1906  -47.1118   47.5743  -17.5040
 1264.8441
  299.8699 -372.7562 -121.8792  232.9430 -112.2751 -823.2496 -183.7339  -23.1200   96.8850-1370.2729
 -567.6520 5940.4260
  245.5317   66.4841  -38.3006 -260.9891 -219.0962 -212.9159  -19.9835   34.1307   19.7941  -73.3169
  127.0247  -18.5136 1083.3209
  237.8712  111.1542  -15.4343 -234.5153 -682.1919 -527.7295  -57.5346 -105.9132 -101.9976 -188.1889
   88.3957  289.3767 1313.3749 4058.5349
  334.6383  129.7727  -33.5025 -281.0633 -444.9805 -815.6593  -65.0006  -55.3013  -55.8941  -68.4589
   69.1071 -323.1244 1552.3620 3313.4559 5173.7656
 -343.5726  -63.4636   38.7152   99.3219  -19.3573  -59.8222  -53.4367 -130.6495   40.0079  112.7947
 -118.6777  -38.9320 -749.2203 -994.9239-1260.3727  808.0158
 -209.1915 -153.0327   31.8420    0.1031 -172.7655 -202.2751 -134.1800 -100.5127  234.5386   57.8841
  -71.9109 -182.4580-1064.2251-3213.3900-2809.4322 1078.5209 3602.7325
 -282.9961 -117.5058   -7.8625   21.2918 -220.7917 -268.4904   61.2315  -40.3105   51.5604   14.4559
 -182.1236  168.7397-1283.6694-2565.6617-3883.0038 1308.3227 2828.7412 3967.0400
 -279.9323   49.1183   70.9048  113.7915 -114.3783 -149.2112  251.6037  113.1288 -221.5378 -487.8147
  -29.8017  442.8969  -80.4333   21.1556 -132.1298   93.0479  124.5347  150.4960  728.4634
  271.3936 -208.5406 -158.7449  -94.9118  -14.3822  117.4578  -59.5288  -63.3266   25.4591 -144.1039
 -785.4214  916.2555  -39.3539  -13.5872   44.3501   10.5250  -48.9800   47.0420 -106.6964 1104.3638
  215.0288  382.3557 -153.8133  156.5436   81.7013 -395.0598  402.6675  336.7530 -175.5051  680.1199
  532.4189-4480.3459  289.9878  -55.6361  449.0213 -222.4111 -130.2894 -360.8619 -632.9528 -863.5974
 5119.1751
   46.1739  -94.8262   77.1299 -158.0847 -246.3931  197.8190-2786.1597-2637.4320 1473.4209  162.9868
    6.9050  508.6147   33.5360   35.4262   91.2114  -34.8240   70.4464  -90.1533 -320.7755   55.6400
 -560.2210 3012.7621
   66.0541  -99.9324   87.3190 -234.3687 -351.0045  114.7760-2558.3193-3289.6477  926.5874   91.7956
   56.5999  223.0895  -13.4402   38.6409   64.3355   58.3331  -30.1507  -88.4629 -219.2081   87.5279
 -274.3046 2717.9331 3619.2881
   93.5704  146.3318 -121.9685   84.1588   48.5828 -103.9323 1614.9284 1177.2443-1411.9999 -201.6510
  -36.7608 -238.2447   10.1155  151.6260   96.6295  -35.2999 -185.8860  -19.9343  261.2008   25.7371
  397.7792-1648.5713-1154.6641 1637.9668
 -364.5069   -4.1228   77.8349  127.0371  123.6553  -64.5972 -138.5652 -232.0491  -45.7636  128.1530
 -172.6952  117.1598 -234.7912 -115.0944 -316.9939  235.6290   84.4429  308.3204  103.3077  -21.1392
 -408.1238   17.4440  141.4091   10.1590 2301.7767
 -403.5562 -141.4733   78.3991  102.6813   47.7081  151.1220 -141.6868 -219.8967   48.3316  119.6442
  -58.7209  -40.5056 -222.0368 -209.7014 -260.4412  227.3499  273.7113  182.9009  106.5109   53.9758
 -429.6960  -60.6225   13.0963 -103.6431 -168.4488 2423.2248
 -168.7085  -40.6803  119.4303   60.9264  -10.4162 -179.6917 -200.3678 -231.2581   75.9068  119.6329
 -117.3978  -44.5269 -129.0937  -28.2142 -194.8373  160.7269  134.7239  257.0823   30.8088   44.6734
 -269.0818   42.3224  114.5107  -72.7098  925.9370  803.7445 1962.7594
  199.8240  108.9482  -37.6823  -83.8395 -103.3547 -111.0593  127.0342  161.6016  -77.3515  -24.6558
   13.7088  -39.1690  145.7580  147.4028  139.7703  -95.4881  -61.7876  -42.2973 -122.2212   35.0603
  164.0431 -112.5349 -131.5679  105.6610 -345.9548   -4.4913   68.1753  974.9747
 -170.0160   -1.4546   98.0268 -181.3017  -81.4532  -27.3050  104.4239  280.1652   60.4424   73.9778
   50.9773 -332.0782  100.5588  -57.6262  295.5093 -123.1659   73.8549 -285.4264  194.2001 -149.7943
  265.6834  104.0273   -4.9554 -166.2150   79.3076 -975.4418 -432.9976 -657.0954 6156.8852
 -104.4047   16.3673   76.8785  -34.0232  -12.7807  -54.0987   36.6424  120.1100   29.4566   61.5544
    8.0938 -131.0383   17.6518  -68.4662   83.0350  -33.0603   73.2793  -74.5893   67.0255  -65.1075
   52.5025   16.4711  -36.5693  -73.3656   74.7019 -297.1807 -267.6495 -208.8317 2233.1355 1243.6334
 -397.6253   30.2450   70.5971   82.6770   38.0522  338.6871 -460.6952 -421.2893  319.5881  226.9427
  -83.1229 -688.0215 -113.2006 -139.3777   59.8828   58.4912  145.5899 -123.5641  115.3083  -50.6695
  179.7441  344.6875  374.3854 -343.1652 -331.1567  639.4930 -111.4466 -268.9310  476.2003  262.9349
 4335.0871
  160.5092  -84.4741  -30.7749    6.2110   17.6017 -201.1801  237.9327  213.6602 -217.6461 -148.3595
    0.2247  512.3545   26.1954   52.9435  -91.1991  -18.9585  -69.3456  114.4874  -64.5466   72.6138
 -246.1518 -193.5947 -211.6178  202.9439  303.8596 -487.2351  158.3847  165.1870 -346.6846 -138.7748
-3057.4558 2891.8045
  -18.6993   80.7432 -119.3339  -28.1070  -69.0746  124.4244  -88.7929  -40.1962   48.7584  -72.4703
  -81.2139 -318.7023   62.4234  112.5945  214.7092 -121.7071  -25.6367 -110.3840  125.7045   63.3289
  342.0553  153.5363   95.3381   -8.1626 -280.8677  -79.0854 -637.8704 -166.4923  407.2128  139.2886
 1534.7616-1101.4774 1832.3763
   62.6827  -48.0194   38.3634   -1.0562   34.1726   34.7492  -74.8394  -79.0146   98.8326   52.1081
   31.6319  -10.8353   22.1320   67.4138   55.0441  -56.0979  -99.6212 -157.3374  -70.0343  104.3633
    2.7473   41.2830   80.5186  -49.8288 -958.2237  -39.4057 -407.6111  -22.9723  -46.6893  -18.4525
 -496.7237  236.2832 -166.8077 3220.2137
 -177.3971  -94.6256   72.7431   59.6780   64.9758   91.4871 -143.9952 -233.2566   87.2255  112.1478
  -30.2314  -48.7220 -168.8843 -233.3821 -262.3753  149.0688  133.7329  133.1303  -34.6435   59.1776
 -100.0636   91.0358  191.9249 -129.9796  -46.1807   43.5622    1.7644 -154.1735 -194.5993  -84.2864
  131.4924  -24.1186  -15.5705  781.3818  869.5594
  -30.5165  -26.5268   47.3479   41.3150  -15.0852  218.4025    7.1858 -125.4733  -94.5700   52.4932
    7.5626 -114.0845 -117.3252 -201.8466 -215.9266   68.5118  -27.6350   -2.6819 -166.1951   92.3509
  296.1110  215.5762  269.4397 -139.4614 -277.9642  -63.7019 -325.8636  -85.2073 -314.4008  -99.5410
  491.1988 -258.9494  860.6913 1059.3649 1135.6178 5571.8575
  177.9425   73.1669  -64.0809  -68.0823  -99.8695   22.9430  149.9862  186.3225 -110.7863 -108.1059
   67.1038  -26.4808  111.5705   25.5196  107.9474 -116.0387  -30.3922  -60.6931  -51.8733  -60.7221
  268.4266  -36.3825 -111.2632   79.0008 -166.4504 -300.8799 -138.7062   76.5043 -129.9974  -90.5107
   98.2158  -74.2069  134.9346-2180.7350 -598.0198 -475.9523 2377.5274
  136.8238   56.0348  -59.5558  -46.2583  -51.5419  -17.9259  112.7976  203.6365  -46.6067  -73.1378
   72.5883  121.8663  116.0422  122.7033  175.4052 -111.3079 -116.6513  -92.8586  -19.5786  -58.9755
   56.7071  -58.9833 -161.1524   62.2891 -189.1188 -236.1094 -282.0149   37.2916  115.1794   38.0313
 -136.1040   49.3637    5.5862 -616.5772 -519.3340-1007.4207  734.1876  676.0235
  143.6447   60.8163  -70.2696  -54.3934   21.8228  -88.8301   48.3067  181.3619   93.8346  -67.6189
   74.9885  235.1741  139.5179  115.8012  230.3912 -138.2178  -74.0916 -124.1272   53.3108  -91.6084
 -128.6417 -120.1371 -235.8216   89.6322 -304.6470 -414.7932 -799.5727   38.0247  193.1916   -0.1638
 -434.8137  169.7633 -507.5677 -595.4445 -949.6123-4801.1336  610.9893 1154.4358 5379.7334
  212.4275  -88.9095  -92.9618  -75.6343    3.9612 -218.4255  461.8573  433.6346 -261.3467 -179.6258
  129.1967  592.5311   79.8351   43.2246  -55.0832  -22.0989  -65.3507   67.3758  -54.7859    8.8254
 -257.8479 -402.7092 -425.9711  261.9075 -375.1132 -114.4121 -264.2293  154.4082 -319.8275 -185.7875
-3243.2805 2370.5398-1298.8989  495.1714  -80.4094 -616.4477 -176.1754  104.3215  549.7312 3298.0194
 -113.7114   98.3648   45.9955  -40.9281  -68.5175   80.1776 -216.2367 -193.2561  177.5820  105.2576
  -39.7552 -482.8935   -3.2524   32.8656  111.3554   -8.4269    6.2389  -75.4467   44.6016  -64.7018
  307.8607  209.0257  224.3322 -151.0076  309.1647 -111.6011   94.4375  -35.2577  141.3149   67.1992
 2379.3276-2104.4529  927.4444 -291.5438  -11.8874  233.6216  128.2611  -62.0094 -125.2369-2343.2083
 2174.2392
  -12.7300  -84.2903   47.2054  -16.8439   42.1489  -73.2499   92.6932   46.5449  -55.3099   28.4310
   79.0552  282.6819  -22.4088   -9.9955 -109.7405   68.2624  -40.2488   21.3537  -78.7556  -56.8897
 -320.1241 -155.8499 -100.5103    1.3843  -41.6015  271.3499  109.7060  173.2817 -349.3815 -135.6315
-1477.0137 1064.1853-1538.3735  180.2040  -17.0160 -873.1621 -177.4529    6.4911  522.4471 1569.9985
-1130.8536 1828.4800
    4.4144  -45.1252    2.1153   19.0187   41.0981    9.3601  -12.7790    2.0184   20.9689  -55.5968
   23.9314  -30.2755  -19.4239   42.3347   49.4677  -12.1974  -56.6208  -49.3721   50.1868   -5.2266
   77.7465   59.1249   48.0821  -11.7884   -5.9270   29.1308   -1.0257 -456.7670  490.9140  151.5804
  105.6839  -52.8012  239.1109   21.0007   -8.3427  -40.5459  -11.9071   34.1215   45.8790 -181.3809
  -22.8262 -217.7678  533.0014
  438.2314   73.0353 -220.2138   86.3742   36.2466  -91.6466  105.3131   32.3696 -151.9448 -208.6858
   13.7619  215.6150  134.1823  346.9288   82.1564 -143.1215 -343.7148   26.8721 -224.7411   84.6513
  187.1286 -200.2299 -176.2568  305.9939 -260.5506 -541.1908 -316.1063  619.7446-4639.6264-1764.7277
 -530.1937  208.4827 -151.3705  -20.8560  -76.2679  291.4884  270.7962   34.4535 -105.4370  488.1967
  -72.8339  188.4478 -453.4525 4979.5292
  186.3913   -0.4402  -95.5697   -0.6924   12.3189   41.8585   37.8114   -2.8392  -64.2004 -112.7642
   19.3869   32.6863   59.1672  132.9883   58.6621  -61.6660 -142.6918  -28.5619  -46.3869   43.2706
  109.4136  -61.2091  -39.8995  103.5296  -89.8873 -230.2605  -34.3045  175.3487-1615.0493 -807.6930
 -124.4197   11.7625    7.3052    7.0333  -24.0011   -8.9822  106.1747   28.7579  -28.0030  108.8249
   20.7301  -61.1771 -138.7986 1730.2055  877.4879
   80.2517   43.5376   29.3373 -110.1446 -141.8324   24.6902 -113.1639 -147.4896   80.4220   91.1070
  158.2610 -265.1664   92.0376  -46.0021  207.1021  -98.0062   35.9558 -132.0173  -66.2130  -67.2292
  117.5925  138.1235  243.0344 -101.6757 -174.6541   22.0758   57.5229   47.2090   82.9727   29.0677
  258.1325 -218.2734  -42.2116  200.5616  -14.4641 -275.7911 -125.5626   17.8557  181.2288  -96.3185
  125.4946   59.0372  -68.4244   -4.5071  -15.4159 2591.5235
   80.6000   25.0925  -25.4084   -8.2741  -63.9394  -75.7767   47.3737   53.2829  -26.4764  -26.3785
   45.4348   56.1370   95.8277  147.5725  130.8808  -77.7982 -123.8504  -78.3849  -17.9340  -32.5400
   10.8451  -21.0590  -13.7381   37.3925  -71.4650  -79.8967   10.9286   37.9779  -74.9138  -17.8179
  -20.7581  -19.4043  -26.3897  -19.9504  -46.5329  -72.7569   25.9343   28.4454   72.4688    9.9179
    7.2412    7.2791  -27.8066  146.2996   17.9414  545.8129  711.1685
   -2.7047    9.1348    2.1066   26.8388   76.2973  -51.4632   34.5193   46.0427   15.2244  -40.1055
  -23.1869   90.5402   40.2819   32.4745   37.6929  -10.4983  -35.0045  -64.8683   19.8284   16.5447
  -39.0832  -65.5454 -117.2223   26.8209  134.8121 -143.6282  -55.5557  -12.9880   -2.0666   -9.3838
 -158.4582  124.8303  -33.2654    2.1945  -11.5965  187.5167  -27.0107  -17.2907 -173.9799   76.0756
  -65.6642   32.4628    5.8564  107.5573   38.9469 -235.5463 -164.8486 2110.2098
 -565.9215  -56.5182   93.9462   44.8762  231.9739  364.2356 -145.7771 -250.9289   76.4947  284.9970
  -85.7536   72.7628 -511.4882 -720.6008 -666.7338  441.8195  470.8806  512.4714  125.8974  -22.1855
 -797.9794   64.8786  101.1212 -171.7922  405.3759  949.7294  748.1006 -160.1437 -196.0751  -30.6451
  773.2196 -506.8902  -74.5054  -53.7425  188.4494 -287.4266 -290.5356 -249.3458  -96.0905 -537.4838
  378.6461  -33.6627   80.5842 -553.1398 -193.9414 -669.7498 -263.2780 -325.4800 5803.2031
  -78.1272  -42.8688   25.0875  -16.4371  106.0190  170.0556  -96.4148 -115.6140   61.0905   95.4156
   -9.9079    2.8064  -63.3702 -169.5563  -30.7113   24.8401   65.4002  -25.4059    1.9201   18.6576
 -181.4731   87.5700   76.1511  -93.8196    7.4212  315.8863  209.3178   -3.6534 -100.4982  -38.3311
  205.8670 -173.3109   26.0823   69.2689   33.3013 -134.5940 -130.6039  -84.3568    1.2653 -166.4058
   97.8297  -26.5277    9.0473 -135.9687  -28.4316  -66.7731 -261.6385  -40.6192 1384.2797  869.9280
 -320.3727  -49.4602   76.9492   61.9757   40.7398  122.0313  -71.2264 -145.8429   68.1300  180.0265
  -57.3774  -15.0380 -309.5946 -353.1834 -450.3209  289.6518  279.1087  376.3954   53.8023   10.0415
 -365.5541   13.2730   80.8783 -108.0815  236.4689  408.3152  312.4051 -159.2475    1.3591   43.5978
  436.1493 -252.7466  -97.6486  -52.2756  133.8993  -84.2637 -134.1882 -125.3215  -73.9474 -285.5545
  177.0381   45.0762   48.1629 -339.0329 -134.9197 -122.1670  -66.2982 -314.4009 2014.5213  383.7439
 1279.4075
  -68.7921  -19.1768   28.2539   55.1775   11.1745  -11.9610  -59.6553  -42.7331   -5.9652    9.4666
  -42.2058  117.6076  -45.1642   25.1063  -72.3980   40.7498   -6.0513   29.0555    8.9265   29.8545
 -114.4748   17.4294   28.8191    2.2517  101.2257  -21.7017  -16.3790  -17.1070   93.4808   19.5690
   18.2327   25.0106   47.5482  -40.3928   29.9893   35.4482   -2.4141   -7.1427  -33.3295  -42.5750
   23.0491  -35.8996   -3.1570  -70.9757  -14.5686 -303.1750  -56.9971 -140.5709   71.6694  -33.9235
  -33.5518  741.3896
    2.6540  -16.9101    9.8079    6.0325   19.8143   60.0864  103.7272   29.2300  -98.9167  -30.9724
   10.8426  -40.7509  -17.4358   14.4013   -1.2204    2.7555  -77.5668  -17.3339    3.9102    1.6125
    2.7608  -59.7659   -5.7917   63.5673    6.3215  -11.6855    5.9386   48.7039 -126.7907  -39.7950
   53.5290  -57.2038   31.5430  -90.3921    0.8299   72.7235   40.6758    7.4046  -80.5165  -49.6157
   40.7769  -20.3931  -68.4907  114.6821   32.9314   -9.7074 -155.0331  -55.1468   65.7799   25.1825
    6.1485  148.3486  508.8520
  434.4454    5.0030   15.7686 -152.3887 -169.7150   23.1713  266.2476  374.2219  -85.2404  -80.6189
   59.2350 -143.1556  265.2370  215.6828  227.2015 -286.1712 -216.4942 -170.7347 -170.9582  139.8613
  340.0681  -93.7509  -77.7619   96.6263 -421.9949 -505.9621 -353.4351  191.5745   96.8209   42.8620
   65.3690 -177.3360  232.6777   46.5583 -192.5489  -12.0409  227.3812  220.4719  185.6054  -31.2092
  177.0376 -182.3954  -32.5119  338.5269   97.9847   75.1811   22.8851 -774.0715 -616.4852 -115.9257
 -299.0232  894.3658  638.3499 5964.4351
 -278.0179  -97.7647   60.4014   64.7081   31.7946   90.1847   62.2767  -15.5985 -124.6116  120.1105
  -98.1238  148.5633 -202.2959 -107.5639 -230.0091  231.6511   52.1987  183.0231  -12.5894  -13.9329
 -300.8329 -103.0912   14.7565   64.4543  545.0694  155.1608  299.7106 -156.0684  177.6396  120.4216
  271.5264 -102.8211 -105.6851 -326.2715   28.1323 -151.7756   -8.0347  -42.5488  -74.7336 -258.2784
  141.1732   84.9332   -2.9399 -270.7843 -167.3956 -865.8645 -139.7591  486.3870 -171.0282  -53.5905
   48.5195  110.9668   20.9035 -205.2845 3666.9683
   47.5530  -76.5342  -29.2385   68.7054   -6.9849  -46.5032  193.2242  190.4392 -133.3589  -74.2830
   92.1563   25.7637   51.2611    1.1317   66.2759  -12.4321  -58.0602  -29.9157  -21.9871   -9.5489
  112.3878 -219.8227 -171.4804  188.8781   30.5423 -126.8135 -108.3756   -2.4322  134.2749   60.4923
  -11.0828  -14.4545   44.6743 -127.6974  -84.7018  -27.1332   91.9880  109.0447   64.0343   14.2413
   17.7291    1.1249  -51.0334    2.8671  -52.8388  -68.4973 -183.6595  116.1260 -243.0706  -28.9307
  -88.7355  -20.3735   32.0621  131.6408  704.7788  884.2953
  131.7857  124.3528  -39.4366 -103.2971  -39.1625  -54.3678 -247.4063 -193.3134  188.6644  -20.4349
  -79.7587  -77.0366  134.5283  218.6472  238.7023 -168.3123  -63.0338 -179.5070   41.0309   40.7027
   69.7066  258.5660  126.2873 -204.6219 -313.0765   50.8794  -82.3085   83.0318 -242.6969 -151.6800
 -208.9318  148.4673   45.5058  270.6725   27.2147  220.6317  -93.6752  -81.6094 -129.5193  139.7467
 -138.4244  -67.5648   70.1813  191.7043  158.4709  492.8469  178.8531 -575.3462  230.9662    3.1112
   75.6303   37.7022  -48.3446  -66.3674-2984.0277-1109.8466 3728.1445
  247.9452  115.1807  -47.1793  -62.3279    8.4816 -153.7648   91.9886  195.1587   25.5232 -165.7062
    4.8196  -29.4489  234.2133  216.3699  249.5777 -243.8044 -147.0418 -215.5251   43.7934   30.8735
  277.2034  -67.6741 -200.1595   40.2468 -452.1868 -265.1026 -342.9442   90.2823  -86.4716  -89.2893
 -384.9582  216.2809  115.9629  292.0601  -44.3510  266.4656   25.1952   55.5160  -21.4664  288.6090
 -160.1309 -114.1526   47.0326  324.5849  159.2525  -56.9974  -29.2498  126.8575 -123.2057  -49.8469
 -129.5131  -87.3033  -39.0794  297.4730-2616.7506 -498.7302 2272.3600 2616.9380
   -4.0590   33.1177   50.6057  -47.5148    6.0137   23.8126 -180.3874 -132.9644  139.8322   38.8653
  -81.9994  -41.0737  -51.8932   -9.2487  -70.2986   40.1077   75.9158   46.5904   35.7860   16.3714
  -60.1295  164.6103   93.1788 -167.0695    2.8523   58.2778   53.1886  -53.2499  -18.4444  -33.0495
  -27.2519   34.3406  -29.5116   54.3191   44.9357   98.4862  -75.2550  -91.5124 -132.5699  -30.0733
  -18.3878   10.0003   65.0522  -60.8650   25.8999 -147.7842  -80.2282  242.0276  190.8227   23.7784
   50.4742   44.6910   -3.8355  -15.0860 -596.6071 -643.7678 1030.8180  602.6099  924.8548
 -132.5090 -120.5349    9.5905   48.0892    1.6343  131.4661  191.6937  112.8693 -178.5544   59.3122
  131.4498   19.0489  -96.3236 -121.6939  -85.0073  114.4434  -35.1977   76.2826  -51.6223  -73.3837
  -79.4285 -174.8316  -48.0063  170.8452  159.6669  106.2536  109.0673   -3.8176   97.2151   68.5182
  276.8247 -201.3822  -50.6921 -186.8068    6.9499 -281.5855   52.6697   51.3819  175.2935 -118.8483
  126.4993   90.2066 -114.0057 -126.5791 -130.2400  295.1217  111.3233 -264.4102 -111.3847   28.2082
  -21.1667  -20.8448   37.3197  -71.8267 2312.0757  956.7391-2860.7676-2271.1443-1208.5885 3072.7439
   -2.1772    1.3244  -26.6588   -9.8815   12.3369    3.0472   55.6895   36.1319  -34.1365  -12.4262
   37.0540  -29.6626    5.4472    5.3716   42.8161  -12.8330  -30.5443    1.2269    9.5717  -53.4370
   39.1817  -36.9300  -28.4797   44.6692  -18.9229   34.0080   20.4223   27.2882 -119.0998  -37.3421
    4.7667  -12.8806   -7.2385  -17.1152  -16.9032  -33.9765   16.7937   17.4076   24.1022    1.8150
   21.2075   14.4387  -23.2594  138.9619   25.9264   59.7848   -2.7177  -44.2582  -19.9223   16.5020
    1.1214 -387.7081  -88.7165 -733.2258  -26.1989    0.1594  -49.5983  -23.6554  -11.8762   -1.3536
  468.9968
   -2.3632  -37.5608   -8.0740  -24.8535  -40.7672  -61.6359  -88.6169  -75.7262   95.7282   29.6064
  -19.9466  -13.9029   -0.2340  -46.5157  -39.5143   23.5530   95.0697   19.8991    7.1727    4.3304
   32.2940   75.7832   48.7568  -70.4687  -27.6933   46.9661   20.3760  -57.2726  109.6494   28.2046
  -26.6187   27.4760  -30.2614   99.9240   42.6995  -21.3921 -109.4437  -37.5255   -2.9418    6.7396
  -32.1350   29.4560   43.4860 -134.6365  -13.9716   63.5770   68.6614 -116.6776    6.4100   16.1677
   23.5979  -86.4035 -281.1941 -591.7512   13.3282   15.4712  -39.9073  -44.1977 -106.7691  117.2596
   82.4522  402.6741
 -338.4960   40.8594   12.4059  126.4210  107.6781  -43.9110 -193.0604 -295.2966   34.3462   78.8475
  -48.5833   38.0850 -209.5266 -179.2473 -181.9588  218.1952  144.5608  129.3081  127.8621 -152.2109
 -123.5801   81.0226  109.4585  -54.3397  307.1804  401.0945  307.0392 -159.7123  -12.6516   14.9106
   -1.5165   94.6401 -158.5092  -55.4680  133.4732  -76.5033 -140.0188 -146.1423 -101.6719  -14.8527
  -91.1997  132.5066   31.0679 -301.8126 -108.6103 -155.8030  -48.8573 -306.4637  449.0547   61.8688
  165.3495 -710.3566 -528.0939-4567.3113  227.5832  -72.5242 -127.2331 -299.9876  -56.7376  197.1209
  771.8448  598.1336 4500.0347
  463.5137    8.7738 -131.5979   14.9577 -148.4987 -301.5688  146.9377  282.0194  -75.4470 -342.7728
   17.9947   -1.7387  394.0825  589.4772  466.6552 -358.2591 -340.1616 -352.8646  -54.2016   37.9836
  707.3804 -105.9014 -234.6506  169.0938 -339.1184 -811.3841 -727.0333  169.0913  102.2105  -23.6217
 -816.3277  573.9485  109.9339  -46.6184 -135.9634  382.0405  345.1370  251.8789   43.6795  497.5619
 -350.8572  -55.0553  -75.0687  524.1911  191.4582 -670.3469  -49.8470  128.4651-4658.1070-1168.6101
-1717.5725  -70.5759  -92.6864  265.9465   87.3973  168.8380  -94.6212  248.9022 -124.3429  -73.9577
  -10.8497  -24.2977 -237.5069 4994.5995
   88.2912   -4.7981  -27.0915   29.2294  -59.0970  -69.8169   36.1860   31.0450  -26.3189  -66.5132
  -18.7330   -8.4396   22.4192  107.7217  -12.2132   -3.6775  -33.1257   63.1885   -4.3795   38.0082
  132.9556  -19.9465  -12.7097   41.8035  -30.4240 -220.8843 -205.5694  -41.4797   58.4204   13.7822
 -196.6490  149.7828   -1.5817  -26.9258    5.1806  150.9851   56.7139   27.2028  -13.8435  111.1713
  -99.3225   -8.7706  -27.4759   65.5220   24.8634 -291.8040   -8.0368    5.5268-1132.7353 -538.2218
 -314.7233   17.4066    0.6334   59.1817   74.8984   71.8170 -105.0977   23.6728  -74.0148   20.6087
  -14.0938  -69.4604  -75.1698 1249.4233  680.3751
  242.0894   35.9025  -93.7335    0.8172  -33.6248 -124.6803   61.0027  144.4634  -62.2277 -174.6817
   15.2805   33.0738  231.4643  277.4195  310.0414 -201.5306 -195.4767 -245.7119  -41.2357   16.8332
  324.2500  -42.6937 -126.2596  108.5912 -169.5248 -340.6170 -277.9013  118.7781    1.9692  -48.0214
 -464.7795  304.9269   47.1003   -3.0400  -97.4421  166.9910  157.4912  109.8062   -1.8462  307.7151
 -207.1072   -1.3553  -27.0424  272.1533  116.4785 -316.7410  -23.5206  141.5212-1641.6030 -340.7654
 -875.0832   28.1056  -23.5192  162.0732  -48.0558   41.4437    6.8980  187.3063  -30.6873 -172.3171
   -5.5954  -32.2050 -185.6151 1751.5700  380.8771  927.7588
  -91.1118  -36.2804   22.9817   29.6184   36.3311   -0.6721  -28.6869   29.8219   54.6283   26.5468
   44.0377  -16.1414   38.7005   35.6915  -19.0237  -27.1005  -44.3035   -4.5974   11.4582  -76.8578
  -33.9503   36.7958  -13.7289  -47.2973   47.7851   17.1858  110.2616   14.0685  108.9628   33.4136
    7.8563  -34.0700   48.0225  -20.0339  -34.0616  -70.2853  -22.2475   -1.7378  -11.5566  -55.1936
   95.1156  -52.2999    5.5197 -156.4646  -66.7230   54.3298   27.5715  -24.6335   72.1906   35.1851
    6.1243   -1.9157   13.8188  -88.3358  -70.2974   13.0096   76.3820   -8.9544   -1.5623  -24.2904
   -3.0644  -24.5647   71.7347  -31.9349  -29.8980  -21.3528  817.7005
  285.0357  146.0863  -44.9163  -77.7256 -126.2614 -187.8566  137.5416  281.7572   84.0919   56.7945
   43.5779 -567.4218  327.3861  324.7333  507.6207 -304.5851 -196.6816 -417.0594 -185.0375    4.5698
  716.6923 -123.4616 -221.5593  -19.8347 -193.1615 -268.3651 -212.2415   78.9588    9.9720   -9.0333
 -224.1738  167.9074 -111.3250  148.0842  -68.0216 -107.7952   55.6661   68.2337  242.4066  207.6476
 -150.6395   99.8074  -39.6648  222.6612  106.6588  288.9618   32.6888   -8.6887 -597.6931  -58.0284
 -290.9388  -47.2781  -10.9381  487.2542 -252.7151   18.0908   97.7994  199.2643  -41.3592  -52.4571
  -26.9852   -2.5753 -393.4685  404.0571   43.6440  183.7144  105.3671 3074.2675
  -49.5096   -4.6526   43.2014  -95.9399 -139.6725   -7.3884  227.4896  254.5702  -55.8719  -14.0471
   89.9009   61.9715  -47.0026  -23.4141  -61.8457   -2.4909   -2.3803   54.5949  107.0245  -72.2781
    1.7424 -140.9998 -194.6810   45.3677 -110.6282  -21.1241 -234.4989  -78.2262  236.3472   85.9718
  129.2133 -131.7870  139.8928  -11.9894   25.9295   82.8433   53.7276   25.7280  -15.8507   -0.9492
   81.3247   11.3068   26.0820 -172.6273  -46.3110  -10.8259   -5.1491  -66.7252   21.5881  -25.4357
    4.2379   62.0858   28.0546  171.5821  -27.8218   23.7291  -89.5521   66.5519  -19.3071   90.2153
  -43.2110   23.0025 -122.9902  -85.9525   11.1224    7.8010 -200.6023   19.3645 2442.2016
  108.1334  -62.5286   51.9566    3.7251   18.0324    9.3594   31.5765   30.1689   24.0914 -151.3726
  104.6700  -46.1950    4.8625 -207.8269   -0.1507   68.3381  246.3992   23.5956  220.3335  -69.6974
  -86.1969 -136.0105 -111.5217  -18.4731 -128.2188    2.8742    3.9227   20.8979   -8.0010    1.9404
   59.1736  -79.7657  -72.0768  -79.8536   10.5287   50.1695  107.6571  -24.8896 -138.9228   34.8358
  -13.0401   88.3672  -35.7941   73.9450   33.8790  211.2418   50.0101   45.0527  -30.4134   27.8989
  -14.9685   38.1798   24.5051  219.5266   57.0422   92.2941 -230.7808  -84.1543  -64.5357  203.7547
  -39.5581  -21.4503 -209.9704 -137.9198  -36.3690   22.8641 -276.2860  243.3669   52.2285 1297.7756
  110.7389   84.5160  -62.9326  -55.7842  -53.7230 -119.5654  134.8828   70.3173 -124.9470   -9.0626
  -67.8130  136.9967  147.0744  322.8375  255.2869 -193.6085 -348.4731 -200.3410 -237.3538   70.2735
  292.5150   59.5577    9.1646   72.3070  -97.9107 -194.9852 -152.2841   88.0253 -149.5158  -92.9870
 -253.0425  203.7170   36.8865   13.8244  -73.6146   27.5702   86.6339   92.9958  129.8187  157.9308
 -106.5216  -28.2344   -4.5730  223.5441   99.0374 -239.1518  -37.9129  -63.6002 -253.4538 -121.6946
  -99.2120  -74.8114   27.5089   49.6603 -224.5427  -35.7427  246.5854  239.4548   31.5928 -260.0292
   51.9407   18.5261   25.4970  401.6185   99.5557   95.0239   92.6106 -204.7745 -210.5905 -702.2803
 1833.7378
  204.9981   86.8733  -61.6107 -113.4648  -18.7191  -67.4691  -62.0468  -35.7941  -70.6146    5.5749
    9.6830 -125.0117  225.2927  285.4535  457.2316 -304.2792 -280.1881 -366.0336 -329.2175   90.5505
  547.0978  219.3341  140.4547   15.4095 -296.0226 -165.5319 -301.5556   92.6464  144.3748   -0.8190
  -48.0911   75.3892  172.7987  111.9535 -120.0323 -202.0558   67.3895  118.1535  350.6373   63.4529
  -53.9560  -75.5103  -18.8396   19.4293   60.0583   32.1315   -4.9028 -215.5786 -272.4425   41.7714
 -212.6938 -114.7413  -12.0733  339.4754 -502.6349  -75.2695  462.6748  404.2476   53.0485 -350.3317
   37.2135   60.6509 -191.0300  344.7752  -27.5104  152.4401   79.8161   36.1579 -577.9988 -810.5587
 2312.0943 5358.5745
 -241.0125  -22.2157   33.1398    1.4265   29.4993   20.0655    5.0662   41.0268   13.0884   53.1116
   24.9710   44.0673  -31.8344   42.0661   72.5479   29.7585  -45.5510  -87.4751   28.4642  -79.4652
 -156.8125   -2.2327  -62.9381  -54.2483   85.1970   31.4660   94.4026    7.7776   29.8841   22.4282
  138.2446  -90.5400   32.3812  -29.3743   -4.9594  -78.6147  -10.7710    1.1462    5.2233 -135.3009
   82.1700  -54.5617  -36.6126  -28.7779  -18.2645   52.1963   -7.5742    9.6865   81.0442   48.5727
   54.2535   41.3618   50.1458  122.2373   52.7063   26.0384  -81.5695  -62.9871  -15.8638   84.4935
   -0.8016  -50.1147 -112.3523 -127.7173  -34.1094  -87.6753 -288.7843  -99.2709  261.1687  -16.6342
  -63.1873   18.3425  876.4522
 -871.7989 -124.0571  182.3632  177.0646  141.7462  115.3084 -254.7965 -400.5646    8.1808  313.8413
 -125.3640   57.3126 -542.2032 -405.8647 -696.0315  526.2999  376.0945  555.9431  170.1991  -78.2580
 -787.7799   25.5478  156.8480 -120.2529  781.9752  619.4692  639.5521 -210.5713  -90.7245   61.0642
  496.2656 -164.8174 -258.0861 -217.6241  314.7920  -67.8224 -249.3557 -273.4292 -274.5303 -417.3440
  162.2776  131.4690 -102.0963 -487.5800 -234.7983 -197.4925 -112.5278  -26.2578  975.4656  106.7317
  556.5992  202.4739   90.3124 -628.9800  529.7312  -56.1127 -264.0218 -540.5688   62.7324  221.5777
  -61.8268  -46.3176  474.8185 -844.9163  -59.6820 -454.8996  -73.0718 -992.8813  400.7442 -220.7780
 -172.0040 -403.0556  571.4502 3459.6419
  631.6265  161.4868  -65.7845 -152.1037    4.2301  135.7068 -186.8282 -147.9174  190.0533 -157.4762
  145.8982 -274.4905  475.3759  909.1997  853.1159 -632.2939-1188.5114 -916.3908 -184.4827   53.3263
  599.2540  437.8156  461.4103 -249.0978 -448.8823 -322.0640 -204.7414  -54.4840  481.7709  145.4048
   58.5154 -193.9146  167.0490  304.2555 -100.9709 -188.8945  -19.6536   47.2468  195.4359  -84.8436
  157.0234  -80.1850  198.4702 -125.1937   45.4883  301.8922  115.1189  -18.1492 -394.5678   97.4836
 -260.3971 -170.7586  -92.0859  386.8173 -242.1940 -129.9393  187.4023  216.7415   40.2407 -176.8499
   37.3253   61.7689 -171.1078  196.4491  -71.2448  153.3569  281.3070  638.8652-1152.3040  243.5457
   18.5006  135.2448 -733.9037-2781.8585 5202.8634
 -243.6961  -36.7218   37.2830   62.8212   -3.4134   10.9240  -14.7949   12.0913   -0.2273  107.9299
  -22.8870  237.8353  -91.7117  -76.9855 -191.0330  134.4392   86.0333  191.4805   27.1023   23.1583
 -402.6767  -21.3249  -72.3972  -50.9291  184.5328  147.8195   60.5599  -34.2940  -10.7594   54.0059
   72.8992    3.3144  -63.5639  -45.7251   66.3341  155.5208  -91.5216  -57.9523 -145.8595  -61.8060
  -12.6510   15.8597  -23.6881 -106.8537  -83.3716  -96.3263  -14.0663  -16.7697  205.2674   30.8987
  110.7400   10.2636   -9.2313 -162.3883   56.0337  -24.0375   -1.5038  -30.5710    7.3802  -17.9557
   15.0773   10.2836  132.8904 -125.1659   10.4496  -72.7847 -206.4588 -128.0480   23.1252   -4.1912
  -79.8137 -164.8618  -18.6755  253.9819 -298.6546  913.5477
 -679.7019  -86.9263  121.3695   48.7886  -94.7863  -77.3738 -500.6351 -567.6156  217.0227  316.8853
 -101.4673 -835.4289 -325.4313 -557.3649 -364.9740  361.5283  567.5041  512.8376   86.8172  142.0010
  153.2139  189.9453  417.8251 -239.3043   98.4204  859.6629  229.8623 -598.2213  962.6953  299.9417
 1046.3991 -628.8402  201.0588  478.3352  398.3135 -207.0040 -536.7712 -403.1610  -13.5937 -609.9765
  435.1392  -21.4276  249.6371-1497.9757 -383.3947  414.1325  -46.2534 -254.7207 1437.6206  517.2074
  712.4706  109.6934   14.9932 -116.2750 -155.1244 -176.7821  155.8768   -6.1588  144.0404  -35.9516
 -138.8518   79.9651  181.9608-1637.9722 -475.3045 -673.1437 -125.8213 -931.3684   46.1601 -541.1502
   82.4789  432.3756   21.8718  860.1905   67.7244  922.5347 9236.8603
  171.1315   36.2675  -24.0883  -14.1777   33.6314   -7.5273  -60.6553   -1.5626  100.0715  -22.9792
   26.5115  586.4955   44.8337   85.2674   40.3250  -47.7071  -79.3978  -65.5062  -62.4602    3.2276
 -386.3506  156.1114  -19.5183 -103.3393 -153.6497 -173.0669 -149.7925  137.8644 -442.5677 -163.1441
 -244.9841  156.6881 -109.6801  -48.8329  -11.4460  288.6532  123.1669   87.4497  -76.2999  231.6084
 -179.4753   41.5162  -99.7474  522.3160  128.5710 -143.0770   40.8517   77.1917 -355.6188 -132.7910
 -121.2796    6.4057   -5.3365   51.1067  -87.4701  -43.1665   66.9095  167.9568   21.9925 -110.4215
   24.2159   -9.8587  -65.4614  375.5322  127.9910  117.5656  -65.9278  140.3138 -110.0986  209.7435
 -144.1756 -312.8343  -57.9269 -250.9799  -55.2566  214.8573 -956.5552 1168.8206
  188.9652   53.2021  -63.6298  -27.6782   61.7556  -30.6163  165.3071  163.8095 -121.3667 -133.0245
   21.9174 -144.1611  117.1040  175.6928  225.3379 -153.8799 -191.9130 -259.7663    5.3701  -28.7338
  346.5041 -138.1762 -123.1062  141.4942 -250.0793 -139.5044 -125.8654   92.9453  -48.1190  -56.7813
 -205.7724   79.8129   22.1084   41.6694 -125.6954  -95.0900   87.6178   88.0033  145.4753  184.6009
 -108.8402   29.4954    8.7243  190.7249   97.5541  -14.6743   28.8161   27.8717 -246.3821  -46.6935
 -124.7942  -40.8010   12.0272  173.0231  -71.3342   35.1760   20.5110  116.9709   -7.1833  -39.9099
   10.2470   -3.0877 -152.3073  227.7724   30.9846  118.8736   -4.5846   64.0439 -113.9573   13.9370
   53.5502  124.3744   38.9739 -372.2253  256.1785 -597.0741 -791.9116 -104.7793  658.7691
  724.8382  -78.6744 -155.2793  -16.9069   80.9741   72.9977  495.1157  523.4573 -237.1264 -506.7465
  136.4805 1198.7627  249.6277  459.8117  265.8345 -317.4132 -546.8642 -378.4431  -14.1765  -62.9204
 -324.0504 -155.9112 -425.2036  275.5607 -191.2131 -797.5602 -255.8554  563.9542 -878.0453 -287.9091
-1129.8252  569.5060  -23.1227 -484.9972 -482.6897  124.1726  545.0487  465.6950   77.1133  716.2456
 -394.2947  -67.9720 -139.7977 1394.0927  368.6363 -607.8571   36.3700  288.8796-1257.6127 -464.0568
 -687.3625 -120.5003  -80.6770  -34.9235  201.9815  228.4077 -237.0636   -2.4896 -162.0837   68.4771
  146.6798  -34.8257  -68.3082 1551.5369  426.0873  696.8917   18.1053 -918.7556  -73.6321  449.0737
 -191.2917 -649.5960 -157.9875-1107.4459  109.0805 -862.8507-8366.6375  983.0380  890.3345 9667.1998
   23.3242   48.6973  -59.9926   -1.5009  -63.5711  -65.1679   85.3950   54.0228 -186.5118 -116.1127
  -15.1468 -446.7242   13.9089   58.1561   90.7212  -29.7725  -22.2743  -29.6219   71.2857   12.1806
  420.2840 -178.6960  -65.4220  170.2895   42.3443  -14.1275   27.8803   22.4991   79.4606  -14.4253
   15.9164  -29.4673   75.1687   27.5518  -52.0216 -106.0998  -17.4198  -10.4745   63.6660  -96.5284
   70.1203  -16.6659   34.7458  -37.9618   53.0759    6.1384  -60.2225  -30.3052   25.9412    5.8760
  -30.7499  -18.2966    2.6905   25.9345  -10.9783   24.4134   25.4612  -16.5793   11.4493  -25.1726
    4.3953   27.6547    4.7779    7.7680   -8.2711   54.3603  -56.6178   91.7899 -159.5777 -145.3415
   58.6165  107.4622   52.5140   37.3881  130.7888 -216.7731  759.5094 -768.0985  262.3149 -844.6848
  995.7408
 -580.0269  -83.2145   18.9569   99.8589  112.3984  162.4117   87.9951  -36.6348  -54.4180   -0.7367
  -63.9195  -14.6432 -161.7048 -239.0840 -234.4551  198.4061  165.5287  191.4181  162.3238   -5.5765
 -237.0914  -80.3834  -71.5484   38.5457  152.9183  251.3673  -33.0732 -115.1051   94.9560   43.2813
  105.7241    5.6381  -37.3792  -42.7533  113.0918   74.1686  -77.1533  -74.2283  -84.6305   16.6387
  -40.3419  112.9749   18.1318 -285.8191  -89.6287 -105.2288  -58.7146   41.1394  325.4832   20.6593
  167.5202   21.5035  -10.5994 -249.2010  195.4519    7.9778  -94.1224 -152.2324    4.6747   84.4578
  -15.4340    8.3062  166.9896 -239.7737  -22.1476  -98.0118   79.6135 -244.2748   69.7849   66.7635
 -122.5624 -221.6371 -263.4669  263.0106 -111.4838  167.7731  323.8509   -7.5977 -136.7850 -247.5935
  -66.2107  887.7799
  455.3367   86.5962 -116.7963  -88.7798 -129.9303  -47.6454  141.3420  178.2050  -13.7435 -203.6929
   69.1482 -142.6749  253.1818  147.9286  297.0425 -277.6644 -126.8489 -261.4496  -66.7296   39.9843
  640.6535   41.7976  -18.9808   88.4844 -508.9257 -415.4275 -489.4017  123.0857   84.5718  -24.9757
 -181.5290   43.8000  188.0784  170.3690 -149.4316   98.1477  146.0716  157.6443  156.8745  195.1511
  -61.0903  -83.2920   48.2006  301.2430  162.5374   73.7293   27.6273   17.0826 -627.8922 -101.1236
 -328.9159 -122.6738  -82.7531  332.3120 -308.9330   14.7987  151.9172  329.7374  -28.2447 -154.6528
   23.2517   63.9648 -223.3644  561.9093   67.0540  289.6438  -46.7029  345.5254  122.9370   90.4346
  155.5088  333.3670 -294.6881-2188.7424 1928.1741 -192.5761 -600.9668  181.9432  202.3086  636.0171
  -21.5331    4.8857 1942.8056
 -318.2569 -146.6686  -79.1746  178.4713  -41.0568 -334.6952  116.0273  263.8093  -64.3724   -7.2074
 -120.6533  344.0230 -152.0893 -478.9295 -414.4050  361.0907  898.9182  595.6541   62.0176    3.8347
 -308.1670 -364.2129 -527.3811  244.9522  251.9887  105.2334  171.7590  129.5829 -447.7442 -154.3410
 -378.3591  319.1605  -93.2473 -225.8759 -118.2896    5.7955   71.8557   48.0683  -61.3763  269.9063
 -213.6367    4.6557 -134.4401  322.1159   40.6778 -283.1445  -40.7096   77.0765    9.2162 -111.5264
   -1.0377  104.4917   26.2221 -189.2960   92.9736  175.5416  -92.6674  -38.9287  -60.7071   51.8398
   -9.7437  -43.5737    6.6293  190.8785   78.7925   59.2124    6.1675   66.6734   95.0273 -199.4205
  163.7721   11.6483  327.0645 1668.1354-3653.1079  183.1046 -500.7468  184.8307  -40.8519  441.5229
 -140.0812  -95.5732-1683.7762 3655.5599
 -204.7620   26.6996  -25.6330   10.6601  -65.3985  -66.0166  -93.8903 -130.9958   -2.5500  177.3910
 -139.4954 -170.7167  -33.5508  169.5451   -4.0159  -38.2891 -193.7928   34.3369 -210.3087  102.9976
  281.3355  140.8746  171.7578  -10.9480  177.3843  -10.3466    3.6322  -68.6223   16.1331   18.4317
  -45.3991   89.1799   -6.2719   80.4722   30.4308  -58.7577 -129.4270  -11.8673  156.6436  -33.1068
  -21.7850  -10.5848   32.3279  -94.0712  -32.7550 -147.4766  -46.2680  -40.6405   59.7306   -9.7472
   27.6103  -21.7058  -10.8880 -187.9538   55.9211  -50.6097   74.0278  -16.9416   29.3642  -83.3195
    9.7750   45.7449  155.6223   18.1089   24.5116  -48.4180   -3.1464  -27.4509   47.6422-1029.3365
  655.5012  813.1559   23.6506  273.9151 -286.7432   66.8171  547.3171 -224.9631  -46.3530 -519.3969
  115.6503  -45.3686 -111.8708  283.6159 1229.9651
 -203.5311 -164.7617   68.4904   42.6497  117.2908  196.5492 -244.7044 -211.0001  176.9896   65.2983
   16.2067    5.5446 -219.1169 -413.1120 -385.8297  265.0163  403.0005  290.5431  245.8586  -56.5261
 -591.5611   53.1847   71.3329 -219.5889  189.9746  302.1164  272.5794  -53.3208   28.0067   72.1366
  342.8849 -224.9702  -41.3618  -46.2434  118.7248  -13.9004 -119.5370 -121.9729 -155.4310 -206.5785
  114.8319   13.4465  -47.0549 -250.7021 -129.2110  207.0655   40.3997   37.9008  420.0395  137.6225
  217.7929   56.0626   15.0776 -207.1551  342.9731   57.6547 -337.1476 -419.0205  -91.4508  377.7177
  -49.4762  -44.4133  116.6195 -543.9850 -135.9981 -197.3919   24.9712 -359.2037 -229.3682  675.4677
-1453.0749-2057.1194   84.4144  409.7433  -76.0296   90.4138  -54.9294   12.5224 -103.5746  170.5780
  -57.8794  219.9318 -289.1664 -213.9197 -809.0809 1743.1218
 -382.9362 -209.6348   88.4697   61.6615  146.4215  265.5073 -164.8722 -320.5761  108.0918  105.6578
 -109.9353  217.5499 -414.5229 -662.0401 -706.2432  461.8019  565.5948  525.4503  357.4674    4.0658
 -984.6043  -52.2397  206.2354 -173.5249  465.4012  414.8280  508.6010 -164.9239 -147.6357   36.5869
  336.5985 -177.5215 -209.5890 -141.6877  260.8564  180.1425 -186.1823 -236.2659 -434.0031 -253.4817
  112.6645   92.0238  -49.8390 -259.9239 -151.4749  110.8408   26.1164  159.4605  620.3349   49.4923
  435.8199  120.2979   74.9972 -563.1237  690.5062   68.3085 -534.7049 -685.3353  -63.8596  473.8971
  -36.8970  -77.2579  360.9665 -726.7781  -69.4694 -373.0695  -33.7302 -857.9994 -458.7802  676.1958
-2059.7353-4417.0153   64.9502  884.7209 -341.4617  177.0257  -74.7844   20.4400 -186.3912  292.6793
  -80.0318  352.4932 -591.4802 -141.4587 -758.6263 2454.2158 5117.5028
 -255.1414 -113.5834   14.3573   16.9108  -11.7366   25.3601  -88.4738 -117.7308   92.1285  105.6215
  -35.5487 -125.7955  -98.3641 -168.3037 -169.6360  116.0801  173.3294  160.7011   15.4172    0.3149
  -52.1972   39.3982   83.5365 -119.9812   89.5989  141.6385   86.5415 -126.2800  103.7610   68.2328
  144.0360  -47.3133  -55.7619   37.8471  120.4878   -8.0822 -101.5770  -85.6590  -40.0788  -67.5509
  -11.0750   57.1590   11.9829 -234.4238  -90.1318  -23.4919  -34.4064  -21.7059  219.3277   75.2405
  126.5923    8.5628    3.9191 -112.3393   73.0434  -43.3957  -43.8205  -97.6652   37.3006   25.4548
  -16.4874   24.4956  101.0461 -204.0559  -35.8244 -115.2344  -45.2974  -97.8624   40.0856   -7.6097
  -58.9085  -67.7536   36.9174  282.3269  -24.6858   46.6754  411.2723 -111.7754  -79.0826 -373.3164
   35.0604   76.0186 -145.5097 -111.1800   76.3041   69.1984  156.1787  302.3008
 -251.7312 -540.9369  -37.1082   -4.5550    5.4595  111.2090  -44.6500  -96.4175   68.1208   55.9436
   -1.7404   54.7349  -46.2993  -83.2900  -17.1581   73.1417   50.4827   27.3787   30.8435   58.2962
 -261.7041   10.0307   10.8733  -87.0747   79.5122  238.9455   85.7185 -130.5772  113.2613   63.6477
[...]
   42.8769  -31.1279   92.4708 -253.8939   39.5460 -111.0946  -88.3324    5.2275  -33.9901   26.5628
   53.1570  -75.8367  -54.3934   30.6064 -179.9385 -387.2382   26.0720   -5.2572  -70.3651 -129.6201
  123.6310  504.8058
  308.8064   35.9339   -9.4812 -150.1672  -85.6145  -63.4229  143.5092  125.6666  -91.4639  -51.1123
   86.7304 -354.0545  168.6831  229.5399  319.6679 -193.1948 -197.7150 -265.6581  -77.2717  -48.2382
  506.3222  -28.1793   34.2679   80.1925 -105.5494 -218.8204  -93.4373   70.7922  193.6102   61.6426
  -86.5207    2.7043   18.2125    4.7358 -136.9301  -53.3232  100.3991  120.0721  114.6450   20.8015
   43.3714  -27.2980   19.1383   10.7912    0.8338  105.3083   73.2901    0.9756 -267.6954  -12.1950
 -182.3566  -69.9587   20.0516  151.4151  -90.7362   89.1176  -17.8995   95.5096  -78.7302   17.7183
   68.6153  -37.9063  -88.1324  180.9754  -32.2666  115.5245  -80.8379  230.9418   62.9110   28.8009
  -41.5827   91.4231  -23.9319 -458.1964  389.5499  -64.1215 -172.8468   37.6970   73.6716  220.8801
   -9.1664  -74.2890  316.5373 -251.5240   47.4306 -113.9781 -224.3859  -74.1155 -120.1818  -24.2111
  -82.1979  -79.0906    8.7654 -483.4017   -5.7916 -282.6780  -15.9389  -17.9248  -95.9825 -157.5056
   54.9549   64.3775  845.2174
   17.1392   43.6659  -42.5171  -53.9691  -44.5368   29.1922   21.0714   42.5066  -11.6785   67.5755
    1.7293  -79.8233   81.9713  166.2468  120.7757  -67.5147  -80.5301  -45.3342  -13.6803   -6.1563
  120.2424   13.0904  -63.4292   40.3532  -85.5741  -36.4025 -128.6662   60.3690   45.8488    4.3694
   22.9487  -39.5216  128.9698  -35.2785  -64.5741   -0.3014   69.2720   51.2119   29.7668   14.2722
   25.1893  -52.2297  -13.1059   21.1113   37.5661   -5.7213    4.5408   16.9213 -141.1210  -12.0804
  -84.0444    6.9749   -6.5183   38.0294  -88.7245    7.6206   54.0205   68.6204   -1.5850  -15.8799
  -11.5269   -3.4971  -50.2780  141.9791   20.5843   63.6495   44.4817    8.5805   15.9475   -6.6619
   18.1438   39.4382   -4.3013 -138.6017   50.5041    6.1484 -119.2365   13.1639   46.7855  165.2182
    9.1175  -44.6356   64.0740   32.2480    5.8044   -7.3209  -55.4803  -48.8456    6.1997  -19.7985
    4.7097   32.7655  -51.1886  -73.0110 -288.0805 -215.4784   27.7014  -46.0607   68.8637  -21.3649
   52.0646   -4.8204  -34.4902  363.6844
  300.6650   74.1767  -78.8870 -102.9760 -144.7549 -119.2184   34.6589  137.9568   27.3551  -80.7116
   96.4985   36.9748  231.4663  215.7058  307.0091 -193.9492 -135.1223 -188.6622  -65.5423  -28.6361
  342.0857   70.9133   -6.7324   23.9563 -235.1609 -255.0128 -161.9874  134.4048  117.9610    5.0302
 -139.3218    0.4163  117.7075  -23.4848 -185.4011  -75.3572  153.8281  123.0648  129.4927   75.9241
   34.8883  -79.9162   25.7350  163.2080   84.9529    7.7063   58.8914   11.7939 -489.0522  -88.2970
 -251.7606  -15.6184  -24.3858  314.6293 -134.5683    9.2211   90.3087  170.4653   -5.9958  -74.4183
    3.4632  -19.1498 -228.1536  464.2559   63.0128  220.5556   40.4382  106.1631  -65.5243   23.0379
   51.0604  140.9186  -97.3254 -639.3854  436.5888 -160.9386 -452.8172   89.1463  196.0265  558.3125
   33.4873 -128.7813  367.9615 -148.9622 -113.2280  -96.3393 -267.1433 -142.2821 -116.7582  -27.0529
    2.6306   44.6388  -36.5880 -223.7500 -174.9255 -706.1672  -12.2696  -91.8762    4.8387 -116.1565
  114.7489   62.3832  325.6926  170.2697  684.2966
   37.5260   -8.9882   -0.9639  -27.3876    3.7754   -6.6717   89.7774   86.9626  -35.6051   41.8571
  -58.8266 -125.1797   -1.5209  -37.1158  -88.0446   12.9615   25.1619  102.3760  -12.7442    2.7852
  105.1049  -20.2794  -79.9731   17.8319   84.0591  -70.7400   72.4718    9.8403  107.6073   43.3737
  -67.3005   64.5473  -71.8522  -88.3769  -33.0727  -23.0577   64.2719   -8.6042  -46.7133   16.1936
   12.5698   39.2516    9.0425  -60.1189  -31.1616  -15.2019   10.4195   13.8482   31.3694  -24.6360
   53.5851   -1.1729   -1.8797  140.1739   40.7529   24.6070  -36.3595  -30.5164  -12.7378   19.6632
  -15.8386   -2.8964 -128.4290   -1.6616   13.3421  -36.7292    8.1194   -0.1271    8.7404   64.6437
  -85.6388 -102.0902   -1.9742  -15.9992  -60.2113   37.8571  -80.6751   14.5945   -6.0308  126.5106
  -46.2338   37.3458   -8.5439   49.9771  -53.9666   82.2906   50.2775  -33.9930   -7.0267   27.7167
 -331.7249   12.9234  133.9792  -56.7470   24.5288  -11.9131   42.8892  -27.2333   -0.9327   33.7834
   12.3188  -33.8512   40.2635   26.1047   40.8306  510.5590
   83.8812  -32.6398    4.9487  -37.7175  -40.6694  -49.1903   65.0524   30.8067  -49.7090  -25.6714
   13.9732  -20.2828   45.5229   75.1866  123.2248  -32.8643  -28.3197  -50.0327   -4.4253   39.8520
   37.1498  -46.0867  -13.6817   60.8618  -56.8862  -53.9301  -11.9883   27.3778    8.2130    6.5664
  -58.7572   32.4264  -17.7979   34.3609  -13.7171   88.6101   16.0700   -5.5096  -80.4949   66.7383
  -31.4232   17.8245    8.3211   56.2192   10.9087  -33.4365   -7.5153    5.6029 -135.2285  -36.1415
  -61.7527    3.6581   14.4806  110.3550  -17.3033   66.4498  -48.2478   15.8467  -31.6678   28.3132
  -21.2623  -17.2005  -72.0218  130.1039   28.3340   47.8926  -21.4729   33.7154   31.3564   67.5706
  -49.0628  -56.3484    2.5703  -96.7654    4.0065   -4.2365  -75.5658   10.6567   34.0766  127.5144
   16.8039  -27.4577   55.4289   10.9532  -76.8774   40.9210    3.4116  -26.6801   23.2567   27.8062
  -63.0596  -89.7332  -90.6178  -17.4039 -106.7155 -106.7798   -8.3100  -11.2576  -30.6978  -12.1905
   21.8307   19.5019   39.1173   44.0774   36.3574   17.8399  230.7965
   -0.5707    3.9581   17.8919  -18.5253  -82.3419   27.5314   13.4034  -31.8032  -33.5284   15.0888
  -27.5953   30.9954    8.4505   22.6106  133.3188    7.6873   25.8130  -33.8177    0.7289   89.1029
  -87.8893  -36.2789  -11.9673   70.9975  -49.5902   51.7710  -43.1641   18.0314 -111.0947  -42.1802
   67.0845  -51.1633   43.6177   42.3177   29.8232  107.9499  -15.6566  -12.4997  -69.4189  -13.4108
    1.6229    8.2988  -40.0679   75.8303   23.5106    7.3406  -34.8833  -26.9470  -59.9176    4.3744
  -20.5429   15.1386   13.5437  -40.4140   45.9588   93.7492 -136.4049  -79.6788  -81.0726  156.2199
  -17.0374    2.0037   59.0364   44.3387    7.3884   27.1785  -32.5012  -55.1155   13.8834   62.5774
  -63.2934  -83.1907   -9.0085  -16.4389  -12.1070    1.5559  178.1377   -8.3028  -12.5362 -104.3159
   53.3898   41.4303   42.1490  -13.3931 -103.3825  107.4111  121.8446   39.3037   40.1764  -79.2612
   79.8780 -100.0846 -278.0288   46.0098  -91.2034    4.4572  -14.1756   28.8409  -34.0719  -38.3444
  -10.4520   -4.5148  -26.5876    1.2973  -35.9204 -209.3302   96.0626  405.6688
  114.0466  -22.6873  -39.3889   20.6271  -38.2930  -52.6065  207.7328  238.3303  -94.0773 -141.3738
   68.0759   82.0844   96.2796   79.4538  192.6611  -71.0443  -88.9593 -149.4880   42.0945   13.3894
   97.1114 -131.7788 -249.7149  135.6586 -159.9044 -121.8013 -113.2080   71.4787  -16.2698  -27.9742
 -173.6486  103.5409  -28.9660   30.9188  -58.5768   73.1762   64.6133   39.1589  -16.9643  202.5384
 -129.5452   46.7002  -10.0299  180.4571   72.3805   17.5381   30.7150   23.6352  -44.5423    7.3168
  -66.5965  -18.0634   15.3416  213.6233  -44.8761   62.1080  -22.3411   64.9385  -34.5547   34.4802
   -5.5743  -34.5253 -183.9720   16.9893  -32.8116   59.5131   16.2479  139.3903   15.7415  112.0560
  -33.4084  -37.1621  -36.6761 -234.3567   62.0223    0.4431 -207.7894   93.4714   39.2770  182.2634
   -1.8774   77.5241  172.0124   11.1493 -146.3043   36.1956  -58.6845  -58.4119  -27.4752  -29.9405
 -331.0856   -1.3143 -166.4759  -69.8259   -3.6748 -144.5959   -6.5428  -25.6540   16.1312  -40.2806
   45.8311   -9.6795   58.5252  -16.7845   58.3214  -81.5905   18.5478   27.8229  534.3594
   29.3282   27.6723   -8.0361  -20.3018  -37.2832  -42.5283   44.0273   51.6004  -40.8858   15.9577
  -24.7321 -148.1552   17.3958  105.6865   36.2044    1.5981  -11.3090    2.2104   -1.0916   29.1008
   87.8012 -116.0924  -19.9381   67.3850  -52.7418   39.0723  -26.9722   -3.5347   -2.1506   -8.6406
  120.7376 -106.6476  187.4809    7.7085   24.8345  111.1154    9.5597   -3.8250 -110.4946  -73.3988
   58.4683 -125.8801   25.5627   10.0820   -8.1528  -32.8650   -9.1770   -3.5556   11.0852   -2.9793
    3.6734    3.5046  -12.2242    8.9359  -15.0645   50.2770  -48.7527   21.8451  -21.0180   12.9732
   -4.2564   -8.8826   -2.2920  -16.9064   10.2929    5.5361    8.8665  -59.0970   75.9572  -25.4259
   34.4089  105.4448   17.5658   11.8245  -63.6683  -51.2230   85.9631  -49.0584   39.9056    7.3592
   22.9965  -43.0149   14.4975   55.8477   -7.8751  -18.3538 -119.5167   43.6308  -69.1407   57.4457
  -32.3137 -199.9842  -53.9144   16.8970  -45.2303  -23.9081    2.7375   20.6341  -37.0253    4.7225
    0.1673   57.2154   24.5601  -16.7296  -47.0788   -3.9051   27.6500   37.0307    8.8744  304.8499
   97.5124   -7.7129    0.3238  -33.2467   -3.5508  -20.3252    9.3658   49.2638    8.0514  -32.7520
  -17.1791  146.5077   16.1987    4.1063   76.6084  -25.1127   15.7907  -34.3368  -40.0783   55.5266
  -48.1102   21.5905   -3.5962    2.2055 -169.2334  -28.0442  -55.7645   25.6805  -86.1177  -35.3060
 -135.1543   71.7783  -10.0718   80.3323  -24.6616   32.0618   21.5309   43.8063    4.5168  166.1778
 -119.9121   35.0482   18.2368  135.6979   54.5554  -33.7907    7.9764  -53.4040 -139.0878  -64.0958
  -50.1034  -26.0270   -9.5940  123.4855  -13.3624   -2.9090   10.9230   49.2562    3.1948   -7.8457
    2.4715   -5.2148  -74.1821  145.9856   54.6286   58.5984  -26.3503   67.3233   23.3278  -59.4521
  124.5450  188.3480  -18.8456 -105.3698  -33.9357  -13.9680  -43.2530   83.2499   74.0696   68.0950
    8.8816  -41.7271   59.8672  130.2365   63.8211 -159.4023 -232.6871  -22.2371  -16.3440  -38.1623
 -138.5798  -34.8620 -290.2181   -8.4205  -53.8201 -118.9987    7.7420  -12.3575    7.0858  -45.3253
   41.7912   28.8258   19.2954  -22.4007   40.8254  -33.8901   24.3685   63.8712  203.6829   79.8703
  380.2275


      MOLECULAR POINT GROUP   :   C1  


          ALPHA EIGENVALUES  
 -33.95159 -32.72570 -31.26384 -30.99660 -30.93760 -30.83049 -30.17649 -30.15122
 -30.14696 -30.12488 -30.01813 -29.99258 -25.47315 -23.83150 -23.65337 -22.59084
 -22.56555 -21.18473 -17.24777 -16.84289 -16.65246 -16.44973 -16.24025 -15.40850
 -15.39413 -15.38218 -15.36850 -13.73537 -12.95857 -12.05001 -11.75211 -10.98230
 -10.90172 -10.80161 -10.45752 -10.43087 -10.40810 -10.38472 -10.28211 -10.22997
 -10.14095  -9.86158  -9.75613  -9.50811  -9.41989  -9.39645  -9.39312  -9.33825
  -9.31233  -9.30879  -9.28520  -9.28317  -9.14710  -8.93507  -8.90362  -8.80561
  -8.68437  -8.53345  -8.53061  -8.51196  -8.50435  -8.48720  -8.24206  -8.21501
  -7.82236  -7.82138  -7.79635  -7.79440  -6.67807  -5.45763  -5.36040  -5.24262
  -4.94391  -4.80180  -4.65022  -4.63276  -4.19253  -4.16612   0.79988   3.25210
   4.22129   4.23494   4.36446   4.43882   4.48844   4.60027   4.64961   4.74143
   4.79289   4.92140   5.04802   5.08760   5.26785   5.44991   5.62680   5.76768
   5.79009   5.79557   5.81450   6.02229   6.04727   6.04994   6.07191   6.10812
   6.28977   6.53543   6.56162   6.59293   6.87498   7.22109   7.24748   7.36544
   7.55086   7.71459   7.73718   7.74399   7.90483   8.13490   8.26539   8.32690
   8.70384   8.72573   8.73699   8.75325   8.76222   8.97435   9.00056   9.27499
   9.34654   9.51279   9.66203   9.73217  10.04109  10.20107  10.54712  10.56600
  10.57470  10.59106  11.14940  11.17580  27.54198  29.41336  30.24632


           BETA EIGENVALUES 
 -33.91652 -32.71929 -31.26470 -30.99789 -30.93850 -30.83176 -30.17649 -30.15125
 -30.14698 -30.12489 -30.01816 -29.99259 -26.14816 -23.83154 -23.65384 -22.59084
 -22.56555 -22.30621 -17.77124 -16.84171 -16.66029 -16.45172 -16.24355 -15.40850
 -15.39412 -15.38217 -15.36852 -13.70865 -13.06997 -12.13478 -11.76154 -11.02249
 -10.92896 -10.81313 -10.45752 -10.43087 -10.41774 -10.38722 -10.28359 -10.24431
 -10.14210  -9.87246  -9.84924  -9.51202  -9.41990  -9.41348  -9.39313  -9.33993
  -9.31231  -9.30882  -9.28523  -9.28316  -9.15437  -8.94061  -8.92764  -8.80660
  -8.72908  -8.61570  -8.53343  -8.51199  -8.50435  -8.48721  -8.24208  -8.21502
  -7.82240  -7.82136  -7.79634  -7.79443  -6.87804  -6.44669  -5.44047  -5.23687
  -4.68469  -4.50268  -4.29975  -4.27496  -4.19253  -4.16618   2.34712   2.91790
   3.86594   4.05197   4.07346   4.23430   4.46271   4.59478   4.64133   4.73464
   4.77101   4.89043   4.97182   5.07394   5.26591   5.44897   5.62597   5.76764
   5.79011   5.79559   5.81447   6.02232   6.04722   6.04999   6.07192   6.10662
   6.28693   6.53543   6.56162   6.58975   6.91140   7.22110   7.24746   7.36621
   7.54987   7.67733   7.73720   7.74438   7.90788   8.13334   8.30354   8.34382
   8.68079   8.72573   8.73700   8.75326   8.76222   8.97435   9.00055   9.27680
   9.34626   9.51390   9.68957   9.73921  10.04349  10.20319  10.54712  10.56599
  10.57470  10.59106  11.14940  11.17580  28.27924  29.99478  30.92330


              NET ATOMIC CHARGES AND DIPOLE CONTRIBUTIONS

  ATOM NO.   TYPE          CHARGE      No. of ELECS.   s-Pop       p-Pop       d-Pop       
    1         Ni          -0.167402       10.1674     0.78209     0.39506     8.99026
    2          C          -0.456630        4.4566     0.95271     3.50392
    3          C           0.239459        3.7605     1.09094     2.66961
    4          C           0.343438        3.6566     1.12139     2.53518
    5          C           0.241202        3.7588     1.08441     2.67439
    6          N          -0.370115        5.3701     1.83637     3.53375
    7          N          -0.221886        5.2219     1.74990     3.47198
    8          N          -0.402394        5.4024     1.83802     3.56437
    9          C          -0.475343        4.4753     0.95015     3.52519
   10          C           0.261255        3.7387     1.09009     2.64866
   11          C           0.260562        3.7394     1.08998     2.64946
   12          C           0.257454        3.7425     1.08932     2.65323
   13          N          -0.428384        5.4284     1.83798     3.59041
   14          N          -0.436630        5.4366     1.83825     3.59838
   15          N          -0.438913        5.4389     1.83830     3.60061
   16          C          -0.475247        4.4752     0.95014     3.52511
   17          C           0.261562        3.7384     1.09023     2.64821
   18          C           0.259662        3.7403     1.08971     2.65063
   19          C           0.258457        3.7415     1.08946     2.65208
   20          N          -0.430795        5.4308     1.83805     3.59274
   21          N          -0.433885        5.4339     1.83817     3.59572
   22          N          -0.439755        5.4398     1.83840     3.60136
   23          C          -0.451433        4.4514     0.95309     3.49835
   24          C           0.243757        3.7562     1.08915     2.66710
   25          C           0.363995        3.6360     1.12070     2.51531
   26          C           0.245109        3.7549     1.08579     2.66910
   27          N          -0.380888        5.3809     1.83665     3.54424
   28          N          -0.247114        5.2471     1.74978     3.49733
   29          N          -0.398517        5.3985     1.83753     3.56099
   30          S           0.400106        5.5999     1.86176     3.67057     0.06757
   31          C          -0.373282        4.3733     1.08531     3.28798
   32          C          -0.419673        4.4197     1.05038     3.36929
   33          H           0.149171        0.8508     0.85083
   34          H           0.144608        0.8554     0.85539
   35          H           0.148326        0.8517     0.85167
   36          H           0.193496        0.8065     0.80650
   37          H           0.176671        0.8233     0.82333
 DIPOLE           X         Y         Z       TOTAL
 POINT-CHG.    -2.999    86.666   -13.368    87.742
 HYBRID         0.002     0.077     0.851     0.854
 SUM           -2.997    86.743   -12.517    87.693


          ATOMIC ORBITAL ELECTRON POPULATIONS

     Atom    s        px        py        pz      x^2-y^2     xz        z^2       yz        xy
    1 Ni   0.78209   0.17586   0.14497   0.07423   1.91530   1.84901   1.97556   1.68900   1.56138
    2  C   0.95271   1.38168   1.19475   0.92748
    3  C   1.09094   0.88292   0.88815   0.89853
    4  C   1.12139   0.82573   0.81729   0.89216
    5  C   1.08441   0.88741   0.89458   0.89239
    6  N   1.83637   1.18538   1.15808   1.19029
    7  N   1.74990   1.16653   1.11002   1.19543
    8  N   1.83802   1.22884   1.22368   1.11184
    9  C   0.95015   1.00928   0.99861   1.51730
   10  C   1.09009   0.88557   0.89097   0.87212
   11  C   1.08998   0.88904   0.88856   0.87186
   12  C   1.08932   0.89024   0.88881   0.87417
   13  N   1.83798   1.21232   1.14027   1.23782
   14  N   1.83825   1.19466   1.17801   1.22570
   15  N   1.83830   1.13827   1.22357   1.23877
   16  C   0.95014   0.94792   1.63754   0.93965
   17  C   1.09023   0.89177   0.86795   0.88849
   18  C   1.08971   0.88852   0.86910   0.89302
   19  C   1.08946   0.89172   0.86981   0.89055
   20  N   1.83805   1.19635   1.24420   1.15220
   21  N   1.83817   1.12504   1.24550   1.22518
   22  N   1.83840   1.20498   1.24999   1.14639
   23  C   0.95309   1.61986   0.94003   0.93846
   24  C   1.08915   0.87667   0.89755   0.89288
   25  C   1.12070   0.74115   0.88780   0.88636
   26  C   1.08579   0.87896   0.88884   0.90130
   27  N   1.83665   1.21564   1.21537   1.11323
   28  N   1.74978   1.16982   1.16240   1.16511
   29  N   1.83753   1.22568   1.12228   1.21303
   30  S   1.86176   1.06060   1.31439   1.29557   0.01512   0.00499   0.00532   0.03691   0.00522
   31  C   1.08531   1.19924   1.00738   1.08135
   32  C   1.05038   1.17712   1.03556   1.15661
   33  H   0.85083
   34  H   0.85539
   35  H   0.85167
   36  H   0.80650
   37  H   0.82333


                    (SZ)    =    0.000000
                    (S**2)  =    1.008898


          ATOMIC ORBITAL SPIN POPULATIONS

    Atom   Total    s     px     py     pz   x^2-y^2  xz     z^2    yz     xy
         Atomic
    1 Ni  1.0206  0.020  0.003  0.005  0.001  0.082  0.146  0.023  0.310  0.430
    2  C -0.0015 -0.000 -0.001 -0.001  0.000
    3  C  0.0001  0.000  0.000  0.000  0.000
    4  C -0.0024 -0.000 -0.001 -0.002  0.000
    5  C  0.0004  0.000  0.000  0.000  0.000
    6  N -0.0006 -0.000 -0.000 -0.000 -0.000
    7  N -0.0042 -0.001 -0.001 -0.001 -0.001
    8  N -0.0004 -0.000 -0.000 -0.000 -0.000
    9  C  0.0000 -0.000 -0.000  0.000 -0.000
   10  C  0.0000 -0.000  0.000  0.000 -0.000
   11  C -0.0000  0.000 -0.000  0.000  0.000
   12  C  0.0000  0.000 -0.000  0.000  0.000
   13  N -0.0000 -0.000 -0.000  0.000 -0.000
   14  N  0.0000  0.000  0.000  0.000  0.000
   15  N -0.0000 -0.000 -0.000  0.000  0.000
   16  C -0.0000 -0.000  0.000 -0.000 -0.000
   17  C  0.0000  0.000 -0.000  0.000  0.000
   18  C -0.0000 -0.000 -0.000 -0.000  0.000
   19  C  0.0000  0.000  0.000  0.000  0.000
   20  N -0.0000  0.000 -0.000 -0.000 -0.000
   21  N  0.0000  0.000  0.000  0.000  0.000
   22  N -0.0000  0.000 -0.000 -0.000 -0.000
   23  C -0.0026 -0.000 -0.002 -0.000 -0.000
   24  C  0.0005  0.000  0.000  0.000  0.000
   25  C -0.0025 -0.000 -0.003  0.000 -0.000
   26  C  0.0006  0.000  0.000  0.000  0.000
   27  N -0.0008 -0.000 -0.001 -0.000 -0.000
   28  N -0.0044 -0.001 -0.002 -0.001 -0.000
   29  N -0.0008 -0.000 -0.001 -0.000 -0.000
   30  S -0.9743 -0.019 -0.899 -0.059  0.012 -0.006 -0.001  0.000  0.000 -0.002
   31  C  0.0041  0.001 -0.008  0.004  0.007
   32  C -0.0009 -0.000 -0.000 -0.001 -0.000
   33  H  0.0005  0.001
   34  H  0.0000  0.000
   35  H -0.0001 -0.000
   36  H -0.0196 -0.020
   37  H -0.0121 -0.012

 **********************
 *                    *
 * JOB ENDED NORMALLY *
 *                    *
 **********************



 TOTAL JOB TIME:            22.44 SECONDS

 == MOPAC DONE ==
