 *******************************************************************************
 ** Site#: 26130        For non-commercial use only     Version 16.299L 64BITS**
 *******************************************************************************
 ** Cite this program as: MOPAC2016, Version: 16.299L, James J. P. Stewart,   **
 ** Stewart Computational Chemistry, web: HTTP://OpenMOPAC.net. Days left: 350**
 *******************************************************************************
 **                                                                           **
 **                                MOPAC2016                                  **
 **                                                                           **
 *******************************************************************************

                              PM7 CALCULATION RESULTS


 *******************************************************************************
 *  CALCULATION DONE:                                Thu Nov 10 15:54:57 2016  *
 *  PM7        - The PM7 Hamiltonian to be used
 *  TRIPLET    - SPIN STATE DEFINED AS A TRIPLET
 *  UHF        - UNRESTRICTED HARTREE-FOCK CALCULATION
 *
 *
 *
 *                 CHARGE ON SYSTEM =    -2
 *
 *
 *
 *  XYZ        - CARTESIAN COORDINATE SYSTEM TO BE USED
 *  EF         - USE EF ROUTINE FOR MINIMUM SEARCH
 *  T=         - A TIME OF 172800.0 SECONDS REQUESTED
 *  DUMP=N     - RESTART FILE WRITTEN EVERY  7200.000 SECONDS
 *  HESSIAN    - WRITE OUT HESSIAN FROM GEOMERY OPTIMIZATION
 *******************************************************************************
 EF PM7 XYZ HESSIAN TRIPLET UHF CHARGE=-2
 1003_M42_3

   ATOM   CHEMICAL          X               Y               Z
  NUMBER   SYMBOL      (ANGSTROMS)     (ANGSTROMS)     (ANGSTROMS)
 
     1      Mn          0.00000000  *   0.00000000  *   0.00000000  *
     2       N          0.00000000  *   0.00000000  *   2.08000000  *
     3       H         -0.86324700  *   0.45332100  *   2.45439300  *
     4       H          0.03900000  *  -0.97424100  *   2.45420300  *
     5       H          0.82424700  *   0.52091900  *   2.45416600  *
     6       C          0.00017700  *   3.52469200  *  -0.09021700  *
     7       C          0.00000000  *   2.01000100  *   0.00028000  *
     8       H         -0.90266300  *   3.86453300  *  -0.63999800  *
     9       H          0.90556200  *   3.86557900  *  -0.63406000  *
    10       H         -0.00342600  *   3.96478300  *   0.92863400  *
    11       H         -0.90696100  *   1.66131800  *   0.53645800  *
    12       H          0.90486200  *   1.66215900  *   0.54251700  *
    13       C          3.52469200  *   0.04425600  *   0.07861700  *
    14       C          2.01000100  *  -0.00013600  *  -0.00024400  *
    15       H          3.86453300  *  -0.47459700  *   0.99957800  *
    16       H          3.86557900  *   1.09994300  *   0.11045700  *
    17       H          3.96478300  *  -0.45694600  *  -0.80843900  *
    18       H          1.66131800  *  -1.05345100  *  -0.02462800  *
    19       H          1.66215900  *   0.52416900  *  -0.91561300  *
    20       C          0.08861800  *  -3.52469200  *   0.01691400  *
    21       C         -0.00027500  *  -2.01000100  *  -0.00005300  *
    22       H          0.45744300  *  -3.86453300  *   1.00754400  *
    23       H          0.79410300  *  -3.86557900  *  -0.76907500  *
    24       H         -0.91247400  *  -3.96478300  *  -0.17252600  *
    25       H         -0.69853300  *  -1.66131800  *   0.78893500  *
    26       H         -0.36131000  *  -1.66215900  *  -0.99123900  *
    27       C         -3.52469200  *  -0.08678700  *  -0.02464200  *
    28       C         -2.01000100  *   0.00026900  *   0.00007500  *
    29       H         -3.86453300  *  -0.86085400  *   0.69521800  *
    30       H         -3.86557900  *  -0.36465100  *  -1.04360200  *
    31       H         -3.96478300  *   0.89288900  *   0.25519300  *
    32       H         -1.66131800  *   0.27032900  *   1.01847400  *
    33       H         -1.66215900  *   0.76762400  *  -0.72377700  *
    34       C          0.00000000  *   0.00000000  *  -2.01000000  *
    35       C         -1.37309800  *  -0.16220300  *  -2.49309000  *
    36       C          0.82704100  *  -1.10805900  *  -2.49326900  *
    37       C          0.54605800  *   1.27026300  *  -2.49339000  *
    38       N          0.97773100  *   2.27442600  *  -2.87434500  *
    39       N          1.48079000  *  -1.98394400  *  -2.87407400  *
    40       N         -2.45861300  *  -0.29048200  *  -2.87387300  *
 


          CARTESIAN COORDINATES 

    NO.       ATOM         X         Y         Z

     1        Mn        0.0000    0.0000    0.0000
     2         N        0.0000    0.0000    2.0800
     3         H       -0.8632    0.4533    2.4544
     4         H        0.0390   -0.9742    2.4542
     5         H        0.8242    0.5209    2.4542
     6         C        0.0002    3.5247   -0.0902
     7         C        0.0000    2.0100    0.0003
     8         H       -0.9027    3.8645   -0.6400
     9         H        0.9056    3.8656   -0.6341
    10         H       -0.0034    3.9648    0.9286
    11         H       -0.9070    1.6613    0.5365
    12         H        0.9049    1.6622    0.5425
    13         C        3.5247    0.0443    0.0786
    14         C        2.0100   -0.0001   -0.0002
    15         H        3.8645   -0.4746    0.9996
    16         H        3.8656    1.0999    0.1105
    17         H        3.9648   -0.4569   -0.8084
    18         H        1.6613   -1.0535   -0.0246
    19         H        1.6622    0.5242   -0.9156
    20         C        0.0886   -3.5247    0.0169
    21         C       -0.0003   -2.0100   -0.0001
    22         H        0.4574   -3.8645    1.0075
    23         H        0.7941   -3.8656   -0.7691
    24         H       -0.9125   -3.9648   -0.1725
    25         H       -0.6985   -1.6613    0.7889
    26         H       -0.3613   -1.6622   -0.9912
    27         C       -3.5247   -0.0868   -0.0246
    28         C       -2.0100    0.0003    0.0001
    29         H       -3.8645   -0.8609    0.6952
    30         H       -3.8656   -0.3647   -1.0436
    31         H       -3.9648    0.8929    0.2552
    32         H       -1.6613    0.2703    1.0185
    33         H       -1.6622    0.7676   -0.7238
    34         C        0.0000    0.0000   -2.0100
    35         C       -1.3731   -0.1622   -2.4931
    36         C        0.8270   -1.1081   -2.4933
    37         C        0.5461    1.2703   -2.4934
    38         N        0.9777    2.2744   -2.8743
    39         N        1.4808   -1.9839   -2.8741
    40         N       -2.4586   -0.2905   -2.8739

 General Reference for PM7:
 "Optimization of Parameters for Semiempirical Methods VI: More Modifications to the 
 NDDO Approximations and Re-optimization of Parameters", J. J. P. Stewart, J. Mol. Mod., 1:32, 19 (2013)
 http://www.springerlink.com/openurl.asp?genre=article&id=doi:10.1007/s00894-012-1667-x

           Empirical Formula: C12 H23 N4 Mn  =    40 atoms



      MOLECULAR POINT GROUP   :   C1  


 TRIPLET STATE CALCULATION


          UHF CALCULATION, NO. OF ALPHA ELECTRONS =   51
                           NO. OF BETA  ELECTRONS =   49

          Geometry optimization using EF

          DIAGONAL MATRIX USED AS START HESSIAN

 CYCLE:     1 TIME:   0.270 TIME LEFT:  2.00D  GRAD.:   333.645 HEAT:  381.7973
 CYCLE:     2 TIME:   0.035 TIME LEFT:  2.00D  GRAD.:   219.329 HEAT:  341.5558
 CYCLE:     3 TIME:   0.059 TIME LEFT:  2.00D  GRAD.:   376.210 HEAT:  331.5501
 CYCLE:     4 TIME:   0.031 TIME LEFT:  2.00D  GRAD.:   136.527 HEAT:  311.6965
 CYCLE:     5 TIME:   0.035 TIME LEFT:  2.00D  GRAD.:   106.837 HEAT:  294.4143
 CYCLE:     6 TIME:   0.082 TIME LEFT:  2.00D  GRAD.:   335.073 HEAT:  289.0137
 CYCLE:     7 TIME:   0.039 TIME LEFT:  2.00D  GRAD.:   303.334 HEAT:  281.5961
 CYCLE:     8 TIME:   0.039 TIME LEFT:  2.00D  GRAD.:   233.853 HEAT:  269.2770
 CYCLE:     9 TIME:   0.113 TIME LEFT:  2.00D  GRAD.:   199.140 HEAT:  266.3906
 CYCLE:    10 TIME:   0.039 TIME LEFT:  2.00D  GRAD.:   109.696 HEAT:  261.3779
 CYCLE:    11 TIME:   0.035 TIME LEFT:  2.00D  GRAD.:   106.016 HEAT:  257.2227
 CYCLE:    12 TIME:   0.035 TIME LEFT:  2.00D  GRAD.:    74.527 HEAT:  250.7324
 CYCLE:    13 TIME:   0.039 TIME LEFT:  2.00D  GRAD.:   173.744 HEAT:  243.2173
 CYCLE:    14 TIME:   0.039 TIME LEFT:  2.00D  GRAD.:   115.137 HEAT:  227.6316
 CYCLE:    15 TIME:   0.047 TIME LEFT:  2.00D  GRAD.:   240.682 HEAT:  221.0224
 CYCLE:    16 TIME:   0.039 TIME LEFT:  2.00D  GRAD.:   173.521 HEAT:  204.6179
 CYCLE:    17 TIME:   0.074 TIME LEFT:  2.00D  GRAD.:   227.454 HEAT:  201.5132
 CYCLE:    18 TIME:   0.039 TIME LEFT:  2.00D  GRAD.:    74.499 HEAT:  186.2765
 CYCLE:    19 TIME:   0.086 TIME LEFT:  2.00D  GRAD.:   163.413 HEAT:  184.0930
 CYCLE:    20 TIME:   0.035 TIME LEFT:  2.00D  GRAD.:    82.852 HEAT:  172.6546
 CYCLE:    21 TIME:   0.121 TIME LEFT:  2.00D  GRAD.:    87.517 HEAT:  170.2334
 CYCLE:    22 TIME:   0.039 TIME LEFT:  2.00D  GRAD.:    79.527 HEAT:  166.7889
 CYCLE:    23 TIME:   0.035 TIME LEFT:  2.00D  GRAD.:   109.527 HEAT:  163.7547
 CYCLE:    24 TIME:   0.039 TIME LEFT:  2.00D  GRAD.:    46.671 HEAT:  158.1236
 CYCLE:    25 TIME:   0.043 TIME LEFT:  2.00D  GRAD.:   121.230 HEAT:  154.0087
 CYCLE:    26 TIME:   0.043 TIME LEFT:  2.00D  GRAD.:    72.178 HEAT:  146.1345
 CYCLE:    27 TIME:   0.074 TIME LEFT:  2.00D  GRAD.:   121.848 HEAT:  145.9336
 CYCLE:    28 TIME:   0.039 TIME LEFT:  2.00D  GRAD.:    78.877 HEAT:  140.8990
 CYCLE:    29 TIME:   0.117 TIME LEFT:  2.00D  GRAD.:    44.222 HEAT:  139.1299
 CYCLE:    30 TIME:   0.035 TIME LEFT:  2.00D  GRAD.:    61.454 HEAT:  138.4608
 CYCLE:    31 TIME:   0.035 TIME LEFT:  2.00D  GRAD.:    39.440 HEAT:  137.4329
 CYCLE:    32 TIME:   0.035 TIME LEFT:  2.00D  GRAD.:    60.537 HEAT:  137.1555
 CYCLE:    33 TIME:   0.039 TIME LEFT:  2.00D  GRAD.:    29.324 HEAT:  135.7470
 CYCLE:    34 TIME:   0.102 TIME LEFT:  2.00D  GRAD.:    35.139 HEAT:  135.4060
 CYCLE:    35 TIME:   0.039 TIME LEFT:  2.00D  GRAD.:    18.228 HEAT:  134.9902
 CYCLE:    36 TIME:   0.035 TIME LEFT:  2.00D  GRAD.:    27.521 HEAT:  134.6613
 CYCLE:    37 TIME:   0.039 TIME LEFT:  2.00D  GRAD.:    23.809 HEAT:  134.0908
 CYCLE:    38 TIME:   0.035 TIME LEFT:  2.00D  GRAD.:    28.636 HEAT:  133.3710
 CYCLE:    39 TIME:   0.035 TIME LEFT:  2.00D  GRAD.:    39.764 HEAT:  132.6287
 CYCLE:    40 TIME:   0.043 TIME LEFT:  2.00D  GRAD.:    41.297 HEAT:  131.4662
 CYCLE:    41 TIME:   0.035 TIME LEFT:  2.00D  GRAD.:    71.160 HEAT:  131.1660
 CYCLE:    42 TIME:   0.039 TIME LEFT:  2.00D  GRAD.:    63.303 HEAT:  129.7774
 CYCLE:    43 TIME:   0.105 TIME LEFT:  2.00D  GRAD.:    51.363 HEAT:  129.4756
 CYCLE:    44 TIME:   0.039 TIME LEFT:  2.00D  GRAD.:    36.134 HEAT:  128.8048
 CYCLE:    45 TIME:   0.035 TIME LEFT:  2.00D  GRAD.:    56.961 HEAT:  128.6997
 CYCLE:    46 TIME:   0.039 TIME LEFT:  2.00D  GRAD.:    30.685 HEAT:  127.8893
 CYCLE:    47 TIME:   0.105 TIME LEFT:  2.00D  GRAD.:    27.096 HEAT:  127.6487
 CYCLE:    48 TIME:   0.035 TIME LEFT:  2.00D  GRAD.:    15.883 HEAT:  127.4201
 CYCLE:    49 TIME:   0.035 TIME LEFT:  2.00D  GRAD.:    25.192 HEAT:  127.2218
 CYCLE:    50 TIME:   0.035 TIME LEFT:  2.00D  GRAD.:    21.005 HEAT:  126.8888
 CYCLE:    51 TIME:   0.035 TIME LEFT:  2.00D  GRAD.:    23.996 HEAT:  126.5120
 CYCLE:    52 TIME:   0.035 TIME LEFT:  2.00D  GRAD.:    27.032 HEAT:  126.0156
 CYCLE:    53 TIME:   0.039 TIME LEFT:  2.00D  GRAD.:    23.560 HEAT:  125.3274
 CYCLE:    54 TIME:   0.039 TIME LEFT:  2.00D  GRAD.:    34.293 HEAT:  124.6969
 CYCLE:    55 TIME:   0.039 TIME LEFT:  2.00D  GRAD.:    38.372 HEAT:  123.8173
 CYCLE:    56 TIME:   0.039 TIME LEFT:  2.00D  GRAD.:    53.932 HEAT:  123.6224
 CYCLE:    57 TIME:   0.035 TIME LEFT:  2.00D  GRAD.:    69.175 HEAT:  122.8724
 CYCLE:    58 TIME:   0.039 TIME LEFT:  2.00D  GRAD.:    52.018 HEAT:  122.8168
 CYCLE:    59 TIME:   0.039 TIME LEFT:  2.00D  GRAD.:    67.449 HEAT:  122.4769
 CYCLE:    60 TIME:   0.039 TIME LEFT:  2.00D  GRAD.:    50.319 HEAT:  121.6777
 CYCLE:    61 TIME:   0.102 TIME LEFT:  2.00D  GRAD.:    25.946 HEAT:  120.9049
 CYCLE:    62 TIME:   0.035 TIME LEFT:  2.00D  GRAD.:    32.148 HEAT:  120.8648
 CYCLE:    63 TIME:   0.035 TIME LEFT:  2.00D  GRAD.:    15.725 HEAT:  120.3283
 CYCLE:    64 TIME:   0.035 TIME LEFT:  2.00D  GRAD.:    42.945 HEAT:  120.3141
 CYCLE:    65 TIME:   0.039 TIME LEFT:  2.00D  GRAD.:    28.979 HEAT:  119.5891
 CYCLE:    66 TIME:   0.035 TIME LEFT:  2.00D  GRAD.:    39.578 HEAT:  119.1303
 CYCLE:    67 TIME:   0.039 TIME LEFT:  2.00D  GRAD.:    56.415 HEAT:  118.7957
 CYCLE:    68 TIME:   0.035 TIME LEFT:  2.00D  GRAD.:    36.235 HEAT:  117.4573
 CYCLE:    69 TIME:   0.137 TIME LEFT:  2.00D  GRAD.:    23.410 HEAT:  117.1435
 CYCLE:    70 TIME:   0.035 TIME LEFT:  2.00D  GRAD.:    16.889 HEAT:  116.8601
 CYCLE:    71 TIME:   0.035 TIME LEFT:  2.00D  GRAD.:    21.341 HEAT:  116.7315
 CYCLE:    72 TIME:   0.039 TIME LEFT:  2.00D  GRAD.:    16.404 HEAT:  116.4719
 CYCLE:    73 TIME:   0.035 TIME LEFT:  2.00D  GRAD.:    21.593 HEAT:  116.2678
 CYCLE:    74 TIME:   0.035 TIME LEFT:  2.00D  GRAD.:     9.766 HEAT:  115.7951
 CYCLE:    75 TIME:   0.039 TIME LEFT:  2.00D  GRAD.:    19.988 HEAT:  115.2363
 CYCLE:    76 TIME:   0.035 TIME LEFT:  2.00D  GRAD.:    20.023 HEAT:  114.3229
 CYCLE:    77 TIME:   0.039 TIME LEFT:  2.00D  GRAD.:    32.748 HEAT:  113.5342
 CYCLE:    78 TIME:   0.039 TIME LEFT:  2.00D  GRAD.:    30.633 HEAT:  112.4796
 CYCLE:    79 TIME:   0.039 TIME LEFT:  2.00D  GRAD.:    21.158 HEAT:  111.4099
 CYCLE:    80 TIME:   0.035 TIME LEFT:  2.00D  GRAD.:    23.265 HEAT:  110.4997
 CYCLE:    81 TIME:   0.039 TIME LEFT:  2.00D  GRAD.:    13.813 HEAT:  109.3862
 CYCLE:    82 TIME:   0.039 TIME LEFT:  2.00D  GRAD.:    12.602 HEAT:  108.3954
 CYCLE:    83 TIME:   0.035 TIME LEFT:  2.00D  GRAD.:    15.100 HEAT:  107.3294
 CYCLE:    84 TIME:   0.039 TIME LEFT:  2.00D  GRAD.:    12.569 HEAT:  106.2564
 CYCLE:    85 TIME:   0.035 TIME LEFT:  2.00D  GRAD.:    12.602 HEAT:  105.2343
 CYCLE:    86 TIME:   0.043 TIME LEFT:  2.00D  GRAD.:    13.940 HEAT:  104.3036
 CYCLE:    87 TIME:   0.039 TIME LEFT:  2.00D  GRAD.:    20.523 HEAT:  103.4245
 CYCLE:    88 TIME:   0.043 TIME LEFT:  2.00D  GRAD.:    24.377 HEAT:  102.5020
 CYCLE:    89 TIME:   0.039 TIME LEFT:  2.00D  GRAD.:    13.898 HEAT:  101.5202
 CYCLE:    90 TIME:   0.039 TIME LEFT:  2.00D  GRAD.:    15.938 HEAT:  100.5146
 CYCLE:    91 TIME:   0.039 TIME LEFT:  2.00D  GRAD.:    13.054 HEAT:  99.55375
 CYCLE:    92 TIME:   0.035 TIME LEFT:  2.00D  GRAD.:     9.343 HEAT:  98.70769
 CYCLE:    93 TIME:   0.043 TIME LEFT:  2.00D  GRAD.:    12.199 HEAT:  97.25517
 CYCLE:    94 TIME:   0.203 TIME LEFT:  2.00D  GRAD.:    43.408 HEAT:  97.22455
 CYCLE:    95 TIME:   0.035 TIME LEFT:  2.00D  GRAD.:    14.361 HEAT:  96.98376
 CYCLE:    96 TIME:   0.031 TIME LEFT:  2.00D  GRAD.:     7.204 HEAT:  96.78273
 CYCLE:    97 TIME:   0.035 TIME LEFT:  2.00D  GRAD.:     7.841 HEAT:  96.61865
 CYCLE:    98 TIME:   0.031 TIME LEFT:  2.00D  GRAD.:     7.218 HEAT:  96.30138
 CYCLE:    99 TIME:   0.035 TIME LEFT:  2.00D  GRAD.:     8.207 HEAT:  96.04318
 CYCLE:   100 TIME:   0.031 TIME LEFT:  2.00D  GRAD.:     6.925 HEAT:  95.65714
 CYCLE:   101 TIME:   0.039 TIME LEFT:  2.00D  GRAD.:    14.408 HEAT:  95.55001
 CYCLE:   102 TIME:   0.031 TIME LEFT:  2.00D  GRAD.:    10.130 HEAT:  95.41607
 CYCLE:   103 TIME:   0.035 TIME LEFT:  2.00D  GRAD.:     7.284 HEAT:  95.33748
 CYCLE:   104 TIME:   0.031 TIME LEFT:  2.00D  GRAD.:     4.279 HEAT:  95.23592
 CYCLE:   105 TIME:   0.035 TIME LEFT:  2.00D  GRAD.:     5.861 HEAT:  95.08912
 CYCLE:   106 TIME:   0.035 TIME LEFT:  2.00D  GRAD.:    11.303 HEAT:  94.87460
 CYCLE:   107 TIME:   0.031 TIME LEFT:  2.00D  GRAD.:    10.186 HEAT:  94.69679
 CYCLE:   108 TIME:   0.039 TIME LEFT:  2.00D  GRAD.:     8.206 HEAT:  94.42383
 CYCLE:   109 TIME:   0.031 TIME LEFT:  2.00D  GRAD.:     8.253 HEAT:  94.30950
 CYCLE:   110 TIME:   0.031 TIME LEFT:  2.00D  GRAD.:     9.887 HEAT:  94.22425
 CYCLE:   111 TIME:   0.035 TIME LEFT:  2.00D  GRAD.:     6.846 HEAT:  94.12880
 CYCLE:   112 TIME:   0.035 TIME LEFT:  2.00D  GRAD.:     3.951 HEAT:  94.04741
 CYCLE:   113 TIME:   0.031 TIME LEFT:  2.00D  GRAD.:     6.064 HEAT:  93.98878
 CYCLE:   114 TIME:   0.035 TIME LEFT:  2.00D  GRAD.:     5.517 HEAT:  93.93490
 CYCLE:   115 TIME:   0.031 TIME LEFT:  2.00D  GRAD.:     3.930 HEAT:  93.89390
 CYCLE:   116 TIME:   0.035 TIME LEFT:  2.00D  GRAD.:     3.289 HEAT:  93.86707
 CYCLE:   117 TIME:   0.035 TIME LEFT:  2.00D  GRAD.:     4.229 HEAT:  93.84611
 CYCLE:   118 TIME:   0.031 TIME LEFT:  2.00D  GRAD.:     3.520 HEAT:  93.82934
 CYCLE:   119 TIME:   0.035 TIME LEFT:  2.00D  GRAD.:     3.405 HEAT:  93.80917
 CYCLE:   120 TIME:   0.035 TIME LEFT:  2.00D  GRAD.:     3.726 HEAT:  93.78775
 CYCLE:   121 TIME:   0.031 TIME LEFT:  2.00D  GRAD.:     4.232 HEAT:  93.75276
 CYCLE:   122 TIME:   0.035 TIME LEFT:  2.00D  GRAD.:     3.640 HEAT:  93.72524
 CYCLE:   123 TIME:   0.031 TIME LEFT:  2.00D  GRAD.:     4.490 HEAT:  93.70423
 CYCLE:   124 TIME:   0.035 TIME LEFT:  2.00D  GRAD.:     4.491 HEAT:  93.70186
 CYCLE:   125 TIME:   0.031 TIME LEFT:  2.00D  GRAD.:     3.163 HEAT:  93.68140
 CYCLE:   126 TIME:   0.035 TIME LEFT:  2.00D  GRAD.:     3.634 HEAT:  93.65354
 CYCLE:   127 TIME:   0.031 TIME LEFT:  2.00D  GRAD.:     4.431 HEAT:  93.61603
 CYCLE:   128 TIME:   0.035 TIME LEFT:  2.00D  GRAD.:    10.735 HEAT:  93.04632
 CYCLE:   129 TIME:   0.035 TIME LEFT:  2.00D  GRAD.:    10.279 HEAT:  92.30359
 CYCLE:   130 TIME:   0.035 TIME LEFT:  2.00D  GRAD.:    11.272 HEAT:  91.60091
 CYCLE:   131 TIME:   0.035 TIME LEFT:  2.00D  GRAD.:    14.404 HEAT:  91.01873
 CYCLE:   132 TIME:   0.035 TIME LEFT:  2.00D  GRAD.:     7.214 HEAT:  90.30537
 CYCLE:   133 TIME:   0.035 TIME LEFT:  2.00D  GRAD.:    11.465 HEAT:  89.73105
 CYCLE:   134 TIME:   0.031 TIME LEFT:  2.00D  GRAD.:     7.918 HEAT:  89.60898
 CYCLE:   135 TIME:   0.035 TIME LEFT:  2.00D  GRAD.:    12.223 HEAT:  89.47701
 CYCLE:   136 TIME:   0.035 TIME LEFT:  2.00D  GRAD.:     9.289 HEAT:  89.38333
 CYCLE:   137 TIME:   0.031 TIME LEFT:  2.00D  GRAD.:     6.245 HEAT:  89.29310
 CYCLE:   138 TIME:   0.031 TIME LEFT:  2.00D  GRAD.:     8.524 HEAT:  89.19210
 CYCLE:   139 TIME:   0.035 TIME LEFT:  2.00D  GRAD.:    10.466 HEAT:  89.11223
 CYCLE:   140 TIME:   0.031 TIME LEFT:  2.00D  GRAD.:     7.994 HEAT:  89.00032
 CYCLE:   141 TIME:   0.035 TIME LEFT:  2.00D  GRAD.:     9.954 HEAT:  88.92792
 CYCLE:   142 TIME:   0.031 TIME LEFT:  2.00D  GRAD.:     7.321 HEAT:  88.84596
 CYCLE:   143 TIME:   0.035 TIME LEFT:  2.00D  GRAD.:     5.632 HEAT:  88.77959
 CYCLE:   144 TIME:   0.031 TIME LEFT:  2.00D  GRAD.:     6.782 HEAT:  88.71633
 CYCLE:   145 TIME:   0.031 TIME LEFT:  2.00D  GRAD.:     6.172 HEAT:  88.66749
 CYCLE:   146 TIME:   0.035 TIME LEFT:  2.00D  GRAD.:     5.419 HEAT:  88.58841
 CYCLE:   147 TIME:   0.035 TIME LEFT:  2.00D  GRAD.:     7.737 HEAT:  88.49829
 CYCLE:   148 TIME:   0.031 TIME LEFT:  2.00D  GRAD.:     4.612 HEAT:  88.45047
 CYCLE:   149 TIME:   0.035 TIME LEFT:  2.00D  GRAD.:     6.747 HEAT:  88.38795
 CYCLE:   150 TIME:   0.031 TIME LEFT:  2.00D  GRAD.:     6.900 HEAT:  88.35433
 CYCLE:   151 TIME:   0.035 TIME LEFT:  2.00D  GRAD.:     7.269 HEAT:  88.31216
 CYCLE:   152 TIME:   0.031 TIME LEFT:  2.00D  GRAD.:     5.378 HEAT:  88.27656
 CYCLE:   153 TIME:   0.031 TIME LEFT:  2.00D  GRAD.:     5.135 HEAT:  88.26321
 CYCLE:   154 TIME:   0.035 TIME LEFT:  2.00D  GRAD.:     2.866 HEAT:  88.24105
 CYCLE:   155 TIME:   0.031 TIME LEFT:  2.00D  GRAD.:     4.830 HEAT:  88.20985
 CYCLE:   156 TIME:   0.035 TIME LEFT:  2.00D  GRAD.:     5.203 HEAT:  88.17000
 CYCLE:   157 TIME:   0.066 TIME LEFT:  2.00D  GRAD.:     3.515 HEAT:  87.95470
 CYCLE:   158 TIME:   0.035 TIME LEFT:  2.00D  GRAD.:     4.517 HEAT:  87.56560
 CYCLE:   159 TIME:   0.035 TIME LEFT:  2.00D  GRAD.:    10.051 HEAT:  87.51292
 CYCLE:   160 TIME:   0.031 TIME LEFT:  2.00D  GRAD.:     3.885 HEAT:  87.47220
 CYCLE:   161 TIME:   0.031 TIME LEFT:  2.00D  GRAD.:     4.797 HEAT:  87.46238
 CYCLE:   162 TIME:   0.035 TIME LEFT:  2.00D  GRAD.:     4.116 HEAT:  87.43079
 CYCLE:   163 TIME:   0.035 TIME LEFT:  2.00D  GRAD.:     4.153 HEAT:  87.40671
 CYCLE:   164 TIME:   0.031 TIME LEFT:  2.00D  GRAD.:     6.004 HEAT:  87.40635
 CYCLE:   165 TIME:   0.035 TIME LEFT:  2.00D  GRAD.:     4.533 HEAT:  87.38926
 CYCLE:   166 TIME:   0.031 TIME LEFT:  2.00D  GRAD.:     3.737 HEAT:  87.38164
 CYCLE:   167 TIME:   0.031 TIME LEFT:  2.00D  GRAD.:     2.140 HEAT:  87.36739
 CYCLE:   168 TIME:   0.070 TIME LEFT:  2.00D  GRAD.:     2.744 HEAT:  87.19101
 CYCLE:   169 TIME:   0.035 TIME LEFT:  2.00D  GRAD.:     9.157 HEAT:  87.16308
 CYCLE:   170 TIME:   0.035 TIME LEFT:  2.00D  GRAD.:     4.006 HEAT:  87.11737
 CYCLE:   171 TIME:   0.031 TIME LEFT:  2.00D  GRAD.:     2.338 HEAT:  87.11169
 CYCLE:   172 TIME:   0.031 TIME LEFT:  2.00D  GRAD.:     1.846 HEAT:  87.10155
 CYCLE:   173 TIME:   0.039 TIME LEFT:  2.00D  GRAD.:     3.677 HEAT:  87.08933
 CYCLE:   174 TIME:   0.031 TIME LEFT:  2.00D  GRAD.:     2.798 HEAT:  87.07578
 CYCLE:   175 TIME:   0.035 TIME LEFT:  2.00D  GRAD.:     6.080 HEAT:  86.42945
 CYCLE:   176 TIME:   0.066 TIME LEFT:  2.00D  GRAD.:     4.592 HEAT:  86.37222
 CYCLE:   177 TIME:   0.031 TIME LEFT:  2.00D  GRAD.:     3.518 HEAT:  86.27600
 CYCLE:   178 TIME:   0.031 TIME LEFT:  2.00D  GRAD.:     5.415 HEAT:  86.09668
 CYCLE:   179 TIME:   0.035 TIME LEFT:  2.00D  GRAD.:     4.359 HEAT:  85.75103
 CYCLE:   180 TIME:   0.035 TIME LEFT:  2.00D  GRAD.:     5.839 HEAT:  85.26780
 CYCLE:   181 TIME:   0.031 TIME LEFT:  2.00D  GRAD.:     5.561 HEAT:  85.24088
 CYCLE:   182 TIME:   0.035 TIME LEFT:  2.00D  GRAD.:     4.936 HEAT:  85.19159
 CYCLE:   183 TIME:   0.031 TIME LEFT:  2.00D  GRAD.:     3.536 HEAT:  85.17805
 CYCLE:   184 TIME:   0.031 TIME LEFT:  2.00D  GRAD.:     2.099 HEAT:  85.16660
 CYCLE:   185 TIME:   0.035 TIME LEFT:  2.00D  GRAD.:     2.019 HEAT:  85.15643
 CYCLE:   186 TIME:   0.035 TIME LEFT:  2.00D  GRAD.:     4.364 HEAT:  85.14671
 CYCLE:   187 TIME:   0.031 TIME LEFT:  2.00D  GRAD.:     2.427 HEAT:  85.13247
 CYCLE:   188 TIME:   0.035 TIME LEFT:  2.00D  GRAD.:     1.701 HEAT:  85.12434
 CYCLE:   189 TIME:   0.031 TIME LEFT:  2.00D  GRAD.:     2.112 HEAT:  85.10928
 CYCLE:   190 TIME:   0.035 TIME LEFT:  2.00D  GRAD.:     2.885 HEAT:  85.09514
 CYCLE:   191 TIME:   0.031 TIME LEFT:  2.00D  GRAD.:     2.005 HEAT:  85.08919
 CYCLE:   192 TIME:   0.035 TIME LEFT:  2.00D  GRAD.:     2.475 HEAT:  85.07949
 CYCLE:   193 TIME:   0.031 TIME LEFT:  2.00D  GRAD.:     1.791 HEAT:  85.07611
 CYCLE:   194 TIME:   0.031 TIME LEFT:  2.00D  GRAD.:     1.568 HEAT:  85.07048
 CYCLE:   195 TIME:   0.035 TIME LEFT:  2.00D  GRAD.:     2.250 HEAT:  85.06629
 CYCLE:   196 TIME:   0.031 TIME LEFT:  2.00D  GRAD.:     1.776 HEAT:  85.06311
 CYCLE:   197 TIME:   0.035 TIME LEFT:  2.00D  GRAD.:     1.675 HEAT:  85.06017
 CYCLE:   198 TIME:   0.031 TIME LEFT:  2.00D  GRAD.:     1.475 HEAT:  85.05691
 CYCLE:   199 TIME:   0.074 TIME LEFT:  2.00D  GRAD.:     2.069 HEAT:  84.81224
 CYCLE:   200 TIME:   0.031 TIME LEFT:  2.00D  GRAD.:     1.751 HEAT:  84.58443
 CYCLE:   201 TIME:   0.035 TIME LEFT:  2.00D  GRAD.:     1.600 HEAT:  84.14721
 CYCLE:   202 TIME:   0.039 TIME LEFT:  2.00D  GRAD.:     2.556 HEAT:  83.68175
 CYCLE:   203 TIME:   0.035 TIME LEFT:  2.00D  GRAD.:     3.807 HEAT:  83.24537
 CYCLE:   204 TIME:   0.035 TIME LEFT:  2.00D  GRAD.:     3.950 HEAT:  82.80946
 CYCLE:   205 TIME:   0.031 TIME LEFT:  2.00D  GRAD.:     4.368 HEAT:  82.39432
 CYCLE:   206 TIME:   0.031 TIME LEFT:  2.00D  GRAD.:     4.060 HEAT:  82.00372
 CYCLE:   207 TIME:   0.031 TIME LEFT:  2.00D  GRAD.:     3.096 HEAT:  81.60576
 CYCLE:   208 TIME:   0.035 TIME LEFT:  2.00D  GRAD.:     4.862 HEAT:  81.22349
 CYCLE:   209 TIME:   0.035 TIME LEFT:  2.00D  GRAD.:     2.800 HEAT:  80.85248
 CYCLE:   210 TIME:   0.035 TIME LEFT:  2.00D  GRAD.:     3.641 HEAT:  80.49223
 CYCLE:   211 TIME:   0.035 TIME LEFT:  2.00D  GRAD.:     2.744 HEAT:  80.13864
 CYCLE:   212 TIME:   0.035 TIME LEFT:  2.00D  GRAD.:     3.769 HEAT:  79.79957
 CYCLE:   213 TIME:   0.031 TIME LEFT:  2.00D  GRAD.:     2.473 HEAT:  79.46612
 CYCLE:   214 TIME:   0.035 TIME LEFT:  2.00D  GRAD.:     2.733 HEAT:  79.14788
 CYCLE:   215 TIME:   0.035 TIME LEFT:  2.00D  GRAD.:     2.500 HEAT:  78.84223
 CYCLE:   216 TIME:   0.035 TIME LEFT:  2.00D  GRAD.:     3.326 HEAT:  78.54326
 CYCLE:   217 TIME:   0.035 TIME LEFT:  2.00D  GRAD.:     2.701 HEAT:  78.25065
 CYCLE:   218 TIME:   0.031 TIME LEFT:  2.00D  GRAD.:     2.965 HEAT:  77.96769
 CYCLE:   219 TIME:   0.031 TIME LEFT:  2.00D  GRAD.:     3.171 HEAT:  77.69093
 CYCLE:   220 TIME:   0.031 TIME LEFT:  2.00D  GRAD.:     2.372 HEAT:  77.67752
 CYCLE:   221 TIME:   0.035 TIME LEFT:  2.00D  GRAD.:     2.902 HEAT:  77.66294
 CYCLE:   222 TIME:   0.031 TIME LEFT:  2.00D  GRAD.:     3.140 HEAT:  77.65054
 CYCLE:   223 TIME:   0.031 TIME LEFT:  2.00D  GRAD.:     3.381 HEAT:  77.63494
 CYCLE:   224 TIME:   0.027 TIME LEFT:  2.00D  GRAD.:     3.545 HEAT:  77.62228
 CYCLE:   225 TIME:   0.031 TIME LEFT:  2.00D  GRAD.:     3.766 HEAT:  77.60503
 CYCLE:   226 TIME:   0.035 TIME LEFT:  2.00D  GRAD.:     3.122 HEAT:  77.58914
 CYCLE:   227 TIME:   0.031 TIME LEFT:  2.00D  GRAD.:     2.467 HEAT:  77.57925
 CYCLE:   228 TIME:   0.031 TIME LEFT:  2.00D  GRAD.:     2.743 HEAT:  77.56679
 CYCLE:   229 TIME:   0.035 TIME LEFT:  2.00D  GRAD.:     2.496 HEAT:  77.55567
 CYCLE:   230 TIME:   0.027 TIME LEFT:  2.00D  GRAD.:     2.247 HEAT:  77.54584
 CYCLE:   231 TIME:   0.031 TIME LEFT:  2.00D  GRAD.:     1.475 HEAT:  77.54142
 CYCLE:   232 TIME:   0.035 TIME LEFT:  2.00D  GRAD.:     1.346 HEAT:  77.53847
 CYCLE:   233 TIME:   0.031 TIME LEFT:  2.00D  GRAD.:     1.370 HEAT:  77.53599
 CYCLE:   234 TIME:   0.035 TIME LEFT:  2.00D  GRAD.:     1.477 HEAT:  77.53365
 CYCLE:   235 TIME:   0.031 TIME LEFT:  2.00D  GRAD.:     1.681 HEAT:  77.52991
 CYCLE:   236 TIME:   0.031 TIME LEFT:  2.00D  GRAD.:     1.306 HEAT:  77.52755
 CYCLE:   237 TIME:   0.035 TIME LEFT:  2.00D  GRAD.:     2.662 HEAT:  77.52639
 CYCLE:   238 TIME:   0.035 TIME LEFT:  2.00D  GRAD.:     1.555 HEAT:  77.52014
 CYCLE:   239 TIME:   0.031 TIME LEFT:  2.00D  GRAD.:     1.168 HEAT:  77.51570
 CYCLE:   240 TIME:   0.035 TIME LEFT:  2.00D  GRAD.:     1.053 HEAT:  77.51095
 CYCLE:   241 TIME:   0.035 TIME LEFT:  2.00D  GRAD.:     1.311 HEAT:  77.50486
 CYCLE:   242 TIME:   0.031 TIME LEFT:  2.00D  GRAD.:     1.370 HEAT:  77.50051
 CYCLE:   243 TIME:   0.035 TIME LEFT:  2.00D  GRAD.:     1.136 HEAT:  77.49799
 CYCLE:   244 TIME:   0.035 TIME LEFT:  2.00D  GRAD.:     3.100 HEAT:  77.50268
 CYCLE:   245 TIME:   0.031 TIME LEFT:  2.00D  GRAD.:     0.987 HEAT:  77.49282

     GRADIENT =  0.98684  IS LESS THAN CUTOFF =  1.00000



 -------------------------------------------------------------------------------
 EF PM7 XYZ HESSIAN TRIPLET UHF CHARGE=-2
 1003_M42_3



     GEOMETRY OPTIMISED USING EIGENVECTOR FOLLOWING (EF).     
     SCF FIELD WAS ACHIEVED                                   


                              PM7 CALCULATION
                                                       MOPAC2016 (Version: 16.299L)
                                                       Thu Nov 10 15:55:07 2016
                                                       No. of days remaining = 350




          FINAL HEAT OF FORMATION =         77.49273 KCAL/MOL =     324.22958 KJ/MOL


          TOTAL ENERGY            =      -2757.93156 EV
          ELECTRONIC ENERGY       =     -16245.30098 EV  POINT GROUP:     C1  
          CORE-CORE REPULSION     =      13487.36942 EV
          COSMO AREA              =        352.59 SQUARE ANGSTROMS
          COSMO VOLUME            =        364.11 CUBIC ANGSTROMS

          GRADIENT NORM           =          0.98684
          IONIZATION POTENTIAL    =          0.860395 EV
          ALPHA SOMO LUMO (EV)    =         -1.338  5.883
          BETA  SOMO LUMO (EV)    =         -0.860  5.883
          NO. OF ALPHA ELECTRONS  =         51
          NO. OF BETA  ELECTRONS  =         49
          MOLECULAR WEIGHT        =        278.2785

          MOLECULAR DIMENSIONS (Angstroms)

            Atom       Atom       Distance
            N    40    H    11    16.98052
            N    38    H    24     8.80412
            H    31    N    39     6.95315


          SCF CALCULATIONS        =        277
 
          WALL-CLOCK TIME         =          9.949 SECONDS
          COMPUTATION TIME        =         39.091 SECONDS




   ATOM   CHEMICAL          X               Y               Z
  NUMBER   SYMBOL      (ANGSTROMS)     (ANGSTROMS)     (ANGSTROMS)
 
     1      Mn         -0.36805086  *   0.11923695  *   3.99987023  *
     2       N          1.44407482  *  -0.53166632  *   4.48698601  *
     3       H          1.35507142  *  -0.83322697  *   5.44829618  *
     4       H          1.55879320  *  -1.28267013  *   3.80898938  *
     5       H          2.02981781  *   0.28563980  *   4.33562937  *
     6       C          0.20398360  *   3.22492704  *   4.08416389  *
     7       C          0.15298812  *   1.94023089  *   4.89057932  *
     8       H         -0.74605465  *   3.43687656  *   3.57802066  *
     9       H          0.98095796  *   3.19175446  *   3.31110778  *
    10       H          0.42220466  *   4.07764089  *   4.74050644  *
    11       H         -0.72184847  *   1.84789321  *   5.54326357  *
    12       H          1.08535928  *   1.77444466  *   5.43044119  *
    13       C          1.81213610  *   0.64765581  *   1.72809364  *
    14       C          0.33804273  *   0.44275516  *   2.06446993  *
    15       H          2.41830786  *  -0.24601195  *   1.89550572  *
    16       H          2.25258026  *   1.48148755  *   2.28537380  *
    17       H          1.89668200  *   0.89731807  *   0.66054403  *
    18       H         -0.07920016  *  -0.47907333  *   1.64929764  *
    19       H         -0.26190427  *   1.32897745  *   1.83820802  *
    20       C         -0.14750616  *  -3.07648802  *   4.44893855  *
    21       C         -0.99635688  *  -1.82640461  *   4.35628286  *
    22       H          0.57876327  *  -3.04871514  *   5.26566395  *
    23       H          0.38620297  *  -3.28095922  *   3.51344494  *
    24       H         -0.79916941  *  -3.94283708  *   4.63619540  *
    25       H         -1.31425022  *  -1.38460142  *   5.31309179  *
    26       H         -1.78208734  *  -1.91494223  *   3.60943212  *
    27       C         -3.10992352  *   0.14016324  *   2.45475380  *
    28       C         -2.33024103  *   0.73081841  *   3.62434330  *
    29       H         -3.24924541  *  -0.94234373  *   2.54773931  *
    30       H         -2.61333183  *   0.32867507  *   1.49590859  *
    31       H         -4.10734475  *   0.59612066  *   2.40679091  *
    32       H         -2.77319590  *   0.49015551  *   4.59256432  *
    33       H         -2.17106211  *   1.80334595  *   3.49575047  *
    34       C          0.66522352  *  -0.42232928  * -10.90848258  *
    35       C         -0.71258411  *  -0.54099392  * -11.07135169  *
    36       C          1.44325139  *  -1.55931145  * -10.70667903  *
    37       C          1.26592126  *   0.83288992  * -10.95708723  *
    38       N          1.76909976  *   1.88229955  * -11.00578125  *
    39       N          2.09486123  *  -2.51120715  * -10.54504031  *
    40       N         -1.86421378  *  -0.63947988  * -11.21519410  *

                             CARTESIAN COORDINATES

   1   Mn       -0.368050857     0.119236951     3.999870227
   2    N        1.444074824    -0.531666324     4.486986009
   3    H        1.355071422    -0.833226970     5.448296181
   4    H        1.558793201    -1.282670126     3.808989381
   5    H        2.029817814     0.285639801     4.335629371
   6    C        0.203983602     3.224927037     4.084163890
   7    C        0.152988122     1.940230887     4.890579316
   8    H       -0.746054646     3.436876558     3.578020655
   9    H        0.980957957     3.191754462     3.311107783
  10    H        0.422204664     4.077640893     4.740506439
  11    H       -0.721848472     1.847893211     5.543263573
  12    H        1.085359279     1.774444657     5.430441193
  13    C        1.812136096     0.647655805     1.728093643
  14    C        0.338042730     0.442755158     2.064469935
  15    H        2.418307859    -0.246011955     1.895505717
  16    H        2.252580258     1.481487547     2.285373796
  17    H        1.896681997     0.897318070     0.660544034
  18    H       -0.079200162    -0.479073332     1.649297642
  19    H       -0.261904269     1.328977450     1.838208024
  20    C       -0.147506157    -3.076488019     4.448938554
  21    C       -0.996356882    -1.826404614     4.356282858
  22    H        0.578763267    -3.048715137     5.265663947
  23    H        0.386202966    -3.280959218     3.513444941
  24    H       -0.799169412    -3.942837076     4.636195400
  25    H       -1.314250215    -1.384601422     5.313091792
  26    H       -1.782087336    -1.914942227     3.609432117
  27    C       -3.109923518     0.140163240     2.454753798
  28    C       -2.330241033     0.730818413     3.624343296
  29    H       -3.249245407    -0.942343725     2.547739307
  30    H       -2.613331830     0.328675074     1.495908594
  31    H       -4.107344752     0.596120665     2.406790915
  32    H       -2.773195898     0.490155510     4.592564317
  33    H       -2.171062115     1.803345955     3.495750472
  34    C        0.665223524    -0.422329276   -10.908482582
  35    C       -0.712584108    -0.540993920   -11.071351692
  36    C        1.443251390    -1.559311450   -10.706679028
  37    C        1.265921259     0.832889918   -10.957087227
  38    N        1.769099756     1.882299553   -11.005781246
  39    N        2.094861226    -2.511207154   -10.545040306
  40    N       -1.864213781    -0.639479880   -11.215194100


           Empirical Formula: C12 H23 N4 Mn  =    40 atoms

    Hessian matrix from geometry optimization
  909.4796
  -43.4072  828.5179
   82.5864  -33.5003  699.5580
 -349.1774   55.0499 -101.7758  783.4026
   44.1715 -284.0335   61.6451  133.3520 1027.7356
  -55.3742   48.5354 -240.4332  -99.9780    1.8542 1078.1672
   36.4994   16.2483   14.4470 -134.2378  -72.9650  135.7422  322.1552
   64.5631    3.0851   43.6822 -147.9148 -190.8131  103.1206  107.1900  282.1088
 -121.6211   12.2728  -36.2187  203.1443   45.0324 -512.2655 -247.8734 -163.2786  771.2164
  -24.0154   24.7892   12.3510 -111.5731   36.6207  101.0829  -63.5894   21.8183   28.3095  229.9169
   50.5575   33.0292   -8.2119   38.5523 -351.1003 -145.9972   55.3289   32.8977  -27.3860 -112.0588
  544.8125
   12.0161   -2.4445    5.4559  107.2127 -123.3753 -234.0906   36.7595  -45.8959  -56.9870 -166.2740
  238.3025  364.3447
  -24.8927   18.7279    1.7317 -202.0266 -245.2316   20.9637  -59.0912    5.9768   34.7575   58.8365
  -52.8982  -56.9182  373.5030
  -17.4518   80.1613   -4.3508 -167.3819 -351.5536  -47.8790  -52.1217   -6.8010   94.2169   -5.1462
  -72.5337  -40.7349  319.7581  486.1250
   -4.2126    7.8767    6.3057   64.0382  -61.5477 -159.1650  -22.7232   56.4528   30.1750  -49.3370
  -20.6309   25.4132  -35.0605   32.3042  195.2455
 -134.5643    5.0788  -26.5367   13.1645   48.2745   23.5935  -36.6646  -25.8911   41.4841   16.3213
  -27.8397  -27.8680   17.5368   22.1029  -15.2073  767.0158
    7.5455 -166.6384  -17.2925    6.3256  -38.6776    4.9961   14.2322   -9.9647   -5.4052  -21.8317
   18.2419   26.5786    0.4581   -6.7355  -19.5689   35.9977  978.8178
   -4.7032   45.4349  -87.3322   47.3188   15.9435  -23.3905    1.4535    2.7988   -4.5096  -12.3695
    0.8682   15.3601  -12.6939  -14.2788    5.0122   -1.1952  -79.1861  918.1486
 -204.2374  -35.5310  -20.6490   12.0797   27.7541    9.4326    3.3095   -6.4548    2.4677    5.3351
  -16.3428    4.0204    3.6844    6.5424   18.7791 -242.6136   -7.0490   -5.6922  847.7282
  -55.6377 -279.4874  -64.0744   -7.9178  -53.2218   35.9755   -5.0971   10.6679   17.7695   14.4628
   30.9552  -19.0492   22.7883   46.2270   21.3188   14.1228 -296.1238  138.9505   11.7365  893.3025
  -25.1307  -39.2715 -127.0630   34.0018    5.3918  -58.5882   -4.0543    8.1958   22.9618  -31.2420
   14.0904   36.7296   -0.4562  -16.1620    7.2044   10.9888  181.8048 -223.0185  -26.1893 -175.9177
  820.2243
   29.2427  -56.7148   38.4708   39.3132  -11.6333   46.9397    0.9527   -9.3331   -0.6037   -2.0148
  -38.7528  -15.5485  -17.7730  -18.6653   -9.7801 -348.7717  136.6804 -185.0300    5.1367   32.0110
  -16.7300  701.7640
  -20.4927   -4.2809  -26.2214    6.7622  -14.6386   -4.1838  -11.1041   -8.7177   18.2955    3.0946
   25.1567   -1.3643    2.5585   10.8710    8.3863   31.2123  -77.2757   14.4054   55.7915   -5.3818
   26.5187  -80.7504  159.4359
    8.3075   -7.0600   26.0556    9.3356   -9.7709   31.2906   32.5237  -13.9372  -24.2793    0.2960
   -5.4916   -3.4695  -14.6844  -17.7283   -5.0248 -131.7994   64.5282 -166.5814   -3.8621   27.2964
  -31.4681  278.8682  -59.9940  283.1683
   21.0518   14.0857  -28.4616    9.3160    8.2912  -39.7583  -30.6881   21.4787   16.9463    6.9862
  -31.2609  -13.5001   35.9197   11.0126    1.6172 -236.2628  -77.9746  231.0069   46.3658  -20.9437
   16.3697 -150.5886   23.8628  -56.9928  492.4033
  -20.9157   -7.3569   13.8982  -12.8589    1.6321   -0.0839    9.8216    2.0624    3.2115    5.3171
   -6.5506   -3.6967    7.2872    2.2488   -3.9795    9.2089  -92.9233  -45.0702  -11.2160    3.2871
   26.1486   21.6241   -5.6245   16.1082  -42.2352  165.4009
  -41.9597  -13.9824   36.6693    7.5899   -1.8960    8.1339  -12.7888   -0.2296   37.3859    3.6519
   -5.9075   -7.8227  -21.5230    5.1449    1.8733  163.8246   26.2088 -296.8224  -16.4906   33.9289
  -41.4838  121.7785  -18.3337  101.6597 -333.8690   32.1604  487.3361
    3.6490   12.4524   -2.0435   -1.2693  -13.1367   -1.5974  -17.4684  -10.0617    4.8771   16.2520
   -1.4986  -27.8334   19.6101   20.2729   11.5627 -101.9690 -109.1828  -44.2729   -7.4152    4.5240
  -12.4941  -27.1622  -33.7528  -59.5824   59.2300   33.1866    0.4940  173.3225
   51.4373   53.2646   14.4110  -46.2336    8.4967  -35.3117    1.1813   26.0620  -13.2275   -2.5041
   26.3043    4.6322   29.2001   27.9496   -4.4992  -66.4834 -384.1870 -140.6823    0.8062  -97.8809
   14.0707 -147.6389   21.9594  -77.7998  118.6248   -3.8278 -112.1155  120.8597  595.0503
   15.5364   30.7186  -17.2266  -18.9606   17.7023  -20.2657   -7.7989   -4.7600   23.2613    7.7185
   -9.5546   -2.2429   14.3528    9.9226   -1.7824  -28.4005 -217.7255 -147.6453   13.4046    0.7702
   23.5760 -150.6743   -2.3277  -87.6332  109.8271  -39.1434 -112.3349   73.5593  281.2584  382.6488
   29.5373   11.4345   -4.9438  -11.2340   -2.1166    0.7431   17.6559   22.2625  -27.3355    8.9557
  -17.7554  -20.3554   15.4227   -9.6727  -12.1357   12.6985   14.8134   28.5365 -285.8894  -37.9980
  218.0325   28.2386   -7.1822   10.0159   -2.1171    6.2006  -23.2756   16.8485    0.3513  -12.7990
  456.1105
   -3.1028  -14.0656    6.1519   -8.5990   12.4094    8.4028   13.5152   11.6283  -20.6586   16.9339
   15.4688   -7.3334   -7.1421   12.5057   -0.8646  -27.4676  -16.7492   34.6478   20.2014  -33.1065
   -2.1081    4.7672    1.7959    2.0614    7.6923   -2.4336   -1.8481    5.4251    2.5211    0.4702
   21.6750  143.7379
  -10.3481  -13.4587   -0.9413  -13.7830   14.0145   25.5683   21.3520  -20.6878   -3.7145   -2.6783
   11.4808  -10.8744  -27.5511    5.5343   -2.1913   -4.2828   -2.5537  -39.5133  218.4461   36.9663
 -259.8530  -24.7605   14.7619   -2.2680    5.6429    6.8000    5.7674    1.9625   15.6409   41.1833
 -267.0669  -47.1623  354.4698
   30.5158  -23.7174  -18.8859   24.7311    0.3068   43.9450    7.3208  -12.7122  -12.9006   11.0641
   -7.1463  -33.2045   22.7636  -11.0345  -26.7394   47.8331   24.6576  -36.3931 -366.8039   55.6268
 -152.9509    5.7586   -3.9110   15.2118   13.1614   -4.8739   -0.6326   32.6865    5.9140   18.9280
  -32.2809   -8.4508   -3.7835  538.8692
  -23.3632  -15.2445   -8.1678  -15.6865  -21.4697    4.3926   20.9327    7.0080  -10.2412  -10.9901
   33.9550    8.6399    9.2754    9.6096   10.7175   32.5983  -14.7887   42.0544   26.6917  -23.7186
    8.9199  -22.5757   11.5487   -8.2248    1.7497   -3.3710  -12.6072    3.9040   -5.5640   10.6160
   -3.2320   19.8884   -0.2869  -51.3681  172.7065
    0.3971    1.4052    0.5722   12.8669    2.7595    7.0351   -0.9587  -15.1518   13.0793   -4.1051
  -10.0946   -6.2998    3.7115   -4.4421   -2.6832   -6.9152   35.0186  -45.9964 -119.1517   23.1501
 -137.0774   22.7399    5.1745   -1.4414    9.6112    2.3240   11.9148    9.7274    5.5632   13.9735
  -17.3464   -2.3755   44.7161  186.0193  -43.8066  244.2507
 -146.3209  -11.8366  -27.1990  -22.5500   -9.6228   75.4517   16.8522    7.0684  -78.2280   14.1310
   -9.4084   11.7558   16.7046    0.7399  -12.0093  -60.3838    4.9463  -37.2764  -30.9133    7.7390
  -13.4346   29.6434  -37.4288   29.6447  -43.0213   21.8299   11.5268   -2.0733    0.8039   -5.9525
   31.1741   20.5107  -16.0653   10.5362   13.6472   -5.6827 1079.6494
   32.1343  -71.2882   17.0750  -36.2773 -139.6888   -9.2663   15.3568   17.4595  -25.6412  -18.2264
   25.0770    8.0194   39.2775   36.6584   23.3686   54.6206  -72.1087   16.9901    9.8497  -17.0156
   17.7515   -1.9625    4.0140    2.8242   17.9858   11.3779    6.4587   17.3821   22.8581    4.2659
    5.0727   -7.7310    9.8607   26.0589   -0.0779  -12.3953  -43.9033  933.8568
   32.9510    8.8963  -72.8102   23.2750   56.0177 -104.6967  -52.2755  -17.2638   50.3788   14.1596
  -16.3040    3.8939    3.5288  -12.6618    5.9544   14.8950   -6.1720  -43.1665   20.9117    8.4464
  -35.7540  -15.7655    8.9133  -21.6908  -13.1927  -16.3646    6.2504  -10.2738   20.9990    8.8910
   -6.6049   -3.8590   18.0591   -6.6128   -6.5510  -29.4482   29.8869  -57.7875 1002.4593
 -285.6581   17.1801  131.5452   28.4839   17.8783  -40.8240    2.9098  -18.2271   62.9356   42.1146
  -11.0574  -28.3601  -14.5330    7.7748   19.3406  -21.3912  -48.3251    1.3981   31.5557   96.5465
  -45.1087  -14.9387    9.8536    8.5854    6.6249   -2.1880  -16.9001   10.4938  -23.6540   14.6508
  -14.8337   21.9209   -3.2300   18.8060   -6.5836   -0.7880 -383.3832  -11.1551  -51.8027 1085.2993
   -5.2664 -144.6810    5.0091  -11.3408  -43.8388  -52.2646    9.1216    0.0619   30.4456  -15.0999
   28.0644    8.6299   16.6436  -11.4416    7.4623   25.7827  -15.6406  -31.0532   37.7821  -42.6406
   37.4481    5.9778   10.7219    1.7742   -6.3203   29.5319   35.5724    2.4598    7.4856  -12.2548
    6.2311   -8.1794    5.6468  -14.1960   -4.4117  -11.3818   -8.0761 -165.7610   -7.8625  -70.6905
  983.1540
  113.6837   -5.8318 -313.9458  -48.5147   30.2251  -37.3326  -34.9550  -18.1025   34.9042   13.6235
   -2.8295   23.4567   -8.2095   -3.4115   -4.4074    7.3448   -5.6991  -10.9133  -39.2509  -16.5112
    0.8755  -54.9406   13.4700  -20.1031    3.3505   13.2767  -13.6021    2.0396   39.9837   38.5376
    3.1835   14.1426    4.0445   -4.1690   -6.4919   -3.2100  -25.7969  -37.4676 -116.1193    6.9180
  -27.8329  870.4337
   -9.6756    8.2048   25.7970  -10.9184  -30.4740   29.0362   36.3081    2.7672    8.6534   13.4326
  -43.3870  -11.8798   31.8919   12.4943   -1.2618    7.0536   -9.8868    0.3560    3.9609   -5.4369
   12.8231   20.8244    0.0912   15.6647    3.2161    2.7406   -3.1766    6.3126  -15.0521  -21.4405
    4.4928  -20.4554  -23.5666    2.0702   13.7654   16.4184 -210.4490  160.1740  -60.1370  -32.9645
    1.5301  -46.4009  347.0791
  -15.0502  -23.7381  -21.2798  -32.1582    8.3659  -12.3246   -9.3526   12.7864  -36.7576   11.3254
   28.4402    2.2126    3.1307   21.9059   -7.2166  -21.0810   37.7761   -3.9574   11.2941   29.0777
  -11.9824   -4.5750    8.9135   -2.2477  -45.1950    0.3559   19.4190  -28.5906  -11.5852   -9.6977
    2.2949   14.3838   10.9041  -19.1154   12.3941  -36.5820  216.4671 -312.8397  125.6151   -2.7489
   -5.7718    6.2363 -257.1144  533.9189
    5.3650   -1.1495   21.4344   20.4300  -17.8880   -1.2968  -10.2373   -0.9477   41.1040    2.7382
   -9.4500   -5.9840   13.3190   17.0962   17.8067   13.0185  -34.4195   18.3147   -3.5362    3.7922
   15.2739  -28.6134   -5.3298  -12.3237   22.0748    1.4057    4.6652   13.7924   13.0978   13.2446
  -28.2420   -6.1162    1.8814   -3.6220    8.3687   32.0535  -83.9763  161.8096 -243.0934    2.6575
    0.6040    8.4800  113.7955 -187.0013  308.8308
  -18.6626    4.2393   11.0537    9.8515   -3.9710   18.7057   13.5685    3.9259   -1.9340   11.5780
   -3.2672   -5.2358    9.9075   -0.4956    1.3412    4.7181   10.6792   -0.8122   19.7958    2.8446
    4.6280    8.0322    4.8208   -1.3019    3.3005    7.0885   -3.5834    2.8959  -13.7359   -5.5209
   -4.4511    8.8044   -4.6472  -10.0952    7.5935   15.6904 -116.1644  -40.1697  -48.2664  -28.3473
  -46.7549  -39.5835   33.2340  -17.8383   34.2981  199.6181
  -25.3138   13.8463   39.6123   13.4813   22.5464  -15.3803    9.5430    6.0900   38.8936    7.3551
  -21.3271   -8.8187   18.6964   16.3385    0.5158   -4.7593   35.3460  -25.6881   25.2179   17.3718
    1.1597  -10.3426   12.9861   -8.7742  -17.7219   23.4230    5.4369  -24.4080    2.8312    8.1471
  -31.5308  -10.8410   -3.7435  -35.5770   17.4019   12.8690  -80.6212 -415.2276 -126.0085  -41.4196
    0.3138   -2.1017   35.3423  -53.7112  -50.0615   89.9169  605.7552
   -6.1108    1.2611   -8.1152   14.9219   12.0802   10.2279   -7.2244   -5.1518   12.5372   -6.6483
   -3.7629   10.6370   -5.6402  -10.9053   11.2850   -9.4878   24.2072  -19.8880   11.5022   -2.1408
    9.1998   10.6794   -1.5503    6.8581  -17.5796    8.6178   15.7470  -13.8831   -1.9291   -7.3347
  -13.5368  -16.1322    8.0630    4.5457    4.0771    4.9597  -38.9999 -122.4606 -166.0064  -25.0857
    9.6630   12.4640   28.1204  -22.9747   20.3227   58.2621  205.7741  266.2043
   24.4331   21.2230   -0.8424   21.0022   -7.2128   26.7649    0.2235    1.3962  -13.2912    6.2873
    0.4998   -9.2394   27.9785    2.1952   -5.8219  -11.9980   -4.5881  -15.1454  -20.3471    2.3806
    8.5305   17.6971    8.7399   -5.3887   16.8796  -17.4239  -21.2129    0.3262   17.0747   -0.4917
    4.1913  -16.4552   -5.1969   16.3048   -2.4199    2.3296 -147.5361  -25.0247  152.0762  -47.6626
  -24.8165   21.0304    6.7724   20.2819  -55.7416   14.5125   -7.9608  -23.1990  282.3818
   -6.9574  -17.4934   -7.1786   -8.7822  -13.2497   -8.3855   -0.2869    0.7681  -11.3669    1.8825
   10.4559   -5.2720   12.8006    7.5668    4.5359   16.1616    3.3261   -2.9105   14.8646    4.0514
  -15.6297  -33.6787    4.0397  -15.4487  -10.1239   19.4815   -6.1212   -9.1229    0.0189    7.1820
    1.0572   -9.3304    6.3634    0.7989    3.5840  -24.2770   25.1341  -79.7730   56.3783  -29.9533
   12.1754   20.5277   -2.0380    5.0053   44.4685   -7.0022   31.5839  -24.7020   10.7920  192.4241
  -22.5819    0.9853   -0.7827  -17.6952  -31.9871   23.3098  -18.9781  -19.9044    9.9190   -8.1362
   35.4537   15.2516  -31.4480   31.7588   23.6408   -5.7742   24.2653   10.7284    1.3084    7.7512
   -7.6944   15.5417   -9.3080   26.6151  -37.5264    8.1042   33.3374  -10.0015  -40.4930   -6.8042
   -6.3759   17.4999   34.6100   -0.5091   -4.2761    9.4452  113.6630   50.8880 -427.9096   81.5020
   -7.4691  -15.6401  -61.1468   77.9807  -17.0960  -16.6280  -48.0213  -36.8111 -171.2100  -82.4487
  647.2992
    4.9168    0.6714    3.0469  -10.8397   -5.9391   18.7974   23.9568   -0.8474  -21.8192   16.9555
    1.7445    5.5814   -1.6626   11.7043    2.2682    1.3958    6.1093    2.9013    3.3376   17.7020
    4.1029  -14.1778    3.8774    4.5776  -10.9242    6.7116   -2.9503   -1.8011  -14.1937   -6.2907
    8.6721   17.1253   -8.0954  -10.0831    5.0254   -8.1764  -47.4418  -59.0249  -10.5650  -68.4992
  -30.2373  -51.6268    7.7878    6.5918   -5.3716    4.0233   28.6782   10.7189    2.7785    6.1105
    4.8547  205.8930
   40.7817   48.5626  -25.0017    9.0462    5.6156   18.8789  -13.2975    3.4473  -24.7946   -5.1351
   34.6496    2.6149   -3.7413   21.5883    9.8369   -2.4014   12.7271   36.3223  -21.2763   31.3121
   13.6161  -11.0122   10.6902  -12.8848   12.4694  -11.6511  -16.9083    2.2581   14.6202   27.2874
   -0.9815   11.6651  -20.0020   -9.5789   23.5217   20.8142  -47.1293  -35.5455   29.8286  -73.4916
 -441.4884 -128.5482   -3.8626   42.0257  -39.3865   21.4077   22.4535   -0.8233    5.6844    6.2125
   15.9333   86.5729  563.1765
   12.3174    6.3328  -41.7985   23.7518    8.5469   25.3681    5.8270    4.1631   -7.9156    0.6686
   12.3068    4.0041   -8.1609   -2.3157    3.1087  -12.2003    1.1894   20.2605   -8.5204   15.6554
   11.4351  -10.9480    5.1036  -11.9033   17.2871  -15.4160  -21.2944    6.1629   18.4393   12.9788
    3.0069    5.2627    2.0319    0.0885    7.0305    4.0694   -8.9354  -10.0965   13.3465  -65.1451
 -152.9246 -113.8761    3.7865    6.4320    5.2647    3.2638    7.1039   11.1244   31.1500   -3.9910
    1.5089   55.3527  169.9729  156.2268
   42.3162  -12.4473   -8.5042   20.9782   10.6965   -1.5286    9.1259   -1.4151    2.8029  -20.0936
   10.3914   16.9015  -33.2425  -29.6460   14.3274   -4.2793    7.9938   13.8842    9.8551  -10.2598
   32.5960   17.5630   -7.2251   14.4779    5.5268   -1.8776    2.8939    2.5486  -10.9692  -11.7518
   13.5118  -20.7362  -13.9813   -0.6088    0.8252   12.9576  -97.0733   17.1042  -65.1435 -143.1347
  152.6154  -76.0875   -6.1925  -27.0762   23.1644    6.5331    4.4210   19.7243   -7.7616  -11.5889
   23.1769   27.3322    0.6677    2.7654  300.4283
  -58.8992   53.1582   31.3226  -22.2893  -15.0394    3.3681  -26.6479  -12.7957   14.7648   30.4266
   -0.8117  -25.6950   37.5209   52.6724    1.2365    7.6186  -23.0862   -1.5931   -0.3971   58.4801
  -41.9703  -26.4036   12.9965   -6.1315    4.6854    3.8217   -0.1175    7.4091    9.6134   28.7128
  -19.8459   18.3374    4.7068   -9.4876   11.7121    4.3733   17.2758   -1.9576    7.8379  212.5952
 -328.5868  106.1498    3.8886   14.3531  -26.0050  -10.0088    6.6794  -12.4864   10.9282   -1.2424
   -2.0910    9.9954  -30.4018    0.0543 -220.5770  463.8215
   20.0575    2.0015  -21.2943   38.4121    1.7893   -3.5105    4.3241   -6.1458   13.0405  -18.5439
    8.3634    9.5333  -15.7646  -28.9734    3.2222   -3.9605   -1.5980    7.5720    4.2369  -30.2077
   26.9644   28.9026   -9.4113   10.7892    5.6380   -4.8559   19.6481    2.5204   -9.0862   -8.6746
    2.8278  -23.4624   -5.2260    0.3083   -8.8769   12.2772   -9.7362   14.4523  -25.4084 -131.0688
  164.9691 -149.8764    1.6412  -47.4237   35.8798   10.7245  -13.1598   26.6040    9.7094   -3.9951
   -3.1688   13.4727  -41.8457   22.7627  110.4657 -156.1025  184.5810
 -156.8348    3.3502  -21.2713  -49.1296 -116.0854   36.3227  -33.9185    3.6440   30.2253   -0.4098
    0.5867   -7.5785   43.0855   41.0684  -27.4483   45.9814   15.7005   -1.3970    1.1584  -16.3291
   19.1962   -5.1645    1.9762   -5.4652    7.3516  -14.7777    4.7446   -7.3883   -4.4239    6.7782
    8.3097  -12.2020   -4.4695    0.3900   -0.9500    7.0550  -14.3890  -88.8628   -0.2920  -17.7587
   -6.8806   -7.1293  -19.1844   16.6764    6.1915   -0.6800   21.0392    4.5438   13.2493  -15.0699
   -6.2726  -10.8541  -13.2584    4.4129  -13.1522    0.3461    1.8653  860.8866
   11.9314 -151.6536   16.7701  -52.8540  -53.4735  -41.4434   -5.0854   16.4797  -29.4226  -19.4901
   12.2208   60.4940   -0.9382    4.5359   13.3603   13.6487  -44.2351   19.6012    2.0040    3.5315
   30.4572    4.6446    1.2603   -2.7045  -14.8993    3.6550   12.2164   15.2063    6.8991   12.2433
   22.2687   18.9576  -23.8840  -41.2914   -6.3380  -26.7689  -12.2131  -75.3736   16.8933   39.0164
  -42.1336   41.0988  -26.6127   29.6922  -24.7531   12.7766   -1.4566   -1.9113  -16.9396    0.0600
    9.6619   -0.1704   19.4540    9.5190  -28.8949   30.4459   -4.7602  -53.3601  987.0288
  -35.5848  -56.8109  -94.6789   21.4825  -34.9355  -54.8393   -6.5569    0.3660   37.1317    4.3724
   26.3789    8.3009   -0.8653    0.5321    6.4942    2.8095   25.0315  -24.9954   -4.0259   11.9735
  -42.3928   31.0371   -3.2307   -5.2880   -6.7873  -20.6674   -4.8532    6.4254   -4.7880  -24.4209
   -5.2548    3.2551   -0.3719    2.3227    8.7238    9.2458   25.5834  -24.1140  -73.3359  -18.8449
    8.8174  -19.4546   -7.5577   17.1911   -8.0505    7.4815    3.0363   14.2613   -7.5209    0.7278
   23.5528    9.1280   17.0320   24.3420   12.8470  -18.5866    9.2516  -24.6806  -56.1310  976.1672
 -185.3686  -37.8541   -3.4963  -67.6147  -68.0730   -3.0605    2.7498    5.1620   -4.7505    7.5590
  -14.6821  -14.8623   50.4916   59.4379   -7.7261   24.6827  -12.2299    6.9758  -23.2284   -1.6190
   43.0971   -3.9287   -3.3424  -20.8646   10.1620   10.9695   13.2011   21.2268   -1.9854   -6.9076
   42.6953   16.7949  -29.2501  -13.9163    4.3581   19.7738  -40.3024   -5.7667    9.0931   -5.9820
    9.0489  -27.7938   40.7854  -37.8561  -19.5197   44.1174   23.4636    9.9862   23.4650  -20.7020
  -28.5973    6.4860   26.9227    2.0972  -10.1700   23.2986   -4.5507 -274.6239  223.3851   21.3574
  902.6422
  -39.3954 -395.9427   -1.8528  -47.6249   47.1829   18.4315    3.5908   28.1004  -37.3029   18.2033
  -25.9017   -0.9390   53.0280  -10.8213  -13.1784  -28.7491   34.7837  -27.6107   33.7975   -9.7591
   17.7460    0.5067    5.0650  -22.6137   27.5380   13.5409  -40.7713    1.5672   40.2297   -4.3069
    7.1351   -3.9505   -9.0401   -4.9451   10.8327  -20.7820   35.1376  -31.1709    5.1884  -26.4614
  -15.2252  -25.6978  -35.6586   60.4769  -17.5811   17.1147   31.5133   19.9269   -4.3581   29.9410
  -31.3292   -8.1019   15.6110    2.1576   15.5593  -39.4661   12.9659  179.6283 -293.5621   39.0721
 -200.3650 1132.0847
   -1.5115  -42.6420  -79.6085  -18.2521  -62.5657    8.5543  -11.7249   -0.5097  -12.5312   -0.0946
   12.6922  -19.0234   10.1363    8.9881   -8.3645  -19.8821  -24.7407  -53.4287  -21.5818   12.0436
  -70.5998    2.8440    4.1817    1.3965    0.7728    4.3507   -3.6147   14.9374   30.4446   -3.7963
   -8.4741  -10.2390   -3.7508   62.4359   -4.9293    7.0539  -21.5103  -11.3673  -48.3599  -34.2791
   -7.9992  -23.4586    1.3407  -19.3988   24.1710   20.3133    6.1420   19.3369    0.5723    2.9525
  -11.8101  -12.3333  -11.4728    0.5851   -2.4296    8.4506   -9.9393   44.3639  -26.6441 -135.6427
   38.5378  137.5081 1076.6081
   16.8375   23.5240   10.4772   19.4831   -2.1424   25.1447   -5.1592   10.4287   13.2597   17.3119
  -33.0513  -11.1731   35.6342   25.4438    6.8183   10.3837  -22.3584    5.8852    6.2332  -11.6097
   11.2477  -41.9658    2.2982  -10.7708    8.8343   17.3213   -1.4883   -5.0579   16.2075   23.3117
   -9.2848  -11.8295    4.8055   13.3253   -2.7408    0.4024  -25.3761   33.2726   24.7748    1.2358
  -11.0901   -9.1809   33.4645  -33.0181   18.3642   -0.3043   31.3201    1.8749    5.7373    7.6771
  -31.9858    2.8885    5.2633   -3.9641   -3.8429   -2.0010    1.4212 -184.6594   14.5897 -178.0397
  -45.1552   48.5153  -36.3770  377.3833
   10.2702  -28.5893   -3.4253    6.0520  -17.7582   -0.6429    3.9841   21.1336   -2.6253  -12.6156
   20.4925    8.9561    6.1064    3.9232    6.2272  -10.7327   11.8464   -5.9855    1.3079   17.5036
    2.7045   13.0492    7.1022    2.2869   -9.6129    0.0925    0.8034    2.3665    6.5960   -6.3183
    4.4966    7.1760  -13.6864  -13.6005    9.5047   -4.2811  -14.8653   -8.8053   -1.0326    2.0376
   -1.5739    3.7150    2.9180   -2.9020   -2.1840    0.7196   17.1037   -6.3783    3.9817   -2.4769
  -20.1988    6.9000   12.0214   10.6338    1.4296   10.4688   -6.3668  -16.5901  -29.7247    4.9220
   19.2599   11.4476   49.1290   -4.7380  169.4271
   29.8322    9.7229   32.8254   -4.4498   11.1583   18.4297  -11.4367   14.6290   11.3785   10.5204
  -27.5150    5.1993   22.2441    7.1434    7.7510   11.6460  -10.7823  -11.6922   13.9435   -2.9688
   17.1613   -8.4288   -4.2102  -27.6747   17.4599   19.7345   -1.4753   -4.5440   -7.6036  -16.9050
   -9.6343    3.2090  -20.8660   -5.8523  -12.7878   -6.0626   -3.1385   27.0869   33.9322   17.4894
    8.3646    5.9866    5.3221  -25.1961  -13.0103   14.1431   -3.3866   27.6466  -16.5228   29.0161
    2.5856   -8.8280  -11.1536  -11.2135    3.8675  -15.6476   25.0000 -152.7909   29.1934 -374.9420
  -19.3210   73.3108  -17.3889  276.1907   -7.0825  562.8806
   29.3747   -5.7005   -6.8492   29.6899  -13.5249  -29.5541   -8.6758   26.5229    6.7794   -4.5277
   12.5305   15.2850   -2.8096   -9.2938   10.4270   -0.1717   -3.1644   -8.3223   12.9264    3.0640
  -13.7190    6.7225   -2.8224  -22.4359    7.6912   11.6806   13.6911  -24.1365   -2.4002   -4.6457
  -27.0176   -8.7599    4.2834   -9.7237   -1.1979    3.0905    8.8906    0.3635    6.2321   16.6735
    0.6256  -23.2551  -24.5660   23.9323  -33.2844   17.3742   14.6314   27.0099    1.4383   35.1769
    0.3396   -5.5822   18.2556  -13.8507   11.2251    4.2806   20.1045 -254.9566  -34.3588  194.6121
   -5.4144   67.0139    8.1952   68.1371    7.4660   23.0438  386.1874
    6.7013  -11.6718  -19.7260   -4.9674   -8.6710   20.3213    2.0983   10.0215   -4.0012   -4.9990
   11.5788   17.1129    0.5614    4.4003   -0.2246    3.6821    8.9213    6.2810   -5.5468    7.0935
    6.5553   -4.4605    5.5746    1.7080   -7.7414    4.3712    7.8688   -2.6881   15.9350   12.2608
    3.0423    7.6358  -12.1362   -8.6769   -0.3763  -10.9505   28.0940    9.1895    2.9858  -14.6481
   21.0229   16.3810  -16.1423   17.7982  -10.9315   -4.1639  -16.2595   -8.4294   -4.2939    5.5637
   16.0803    2.4414    9.5768    0.4413   -3.8137   11.4545   -4.5064  -25.4652  -63.3206  -31.5018
   39.6075  -24.4604  -50.3527   -8.7598    1.1197  -18.2261  -44.7837  187.9520
  -29.7811   15.8086  -23.9261  -12.3707   -5.6600   40.1542   -2.5098   -0.8362   -5.7573  -15.9570
   31.6110    6.7845  -10.6191   15.5340    3.9706    3.9702   -2.4230  -12.5826    0.4771   15.1619
   12.9412   -3.4843    4.2142  -11.8754   13.1672  -17.1231  -23.5680   19.2830   25.1003    3.2986
    6.4503   18.9302    1.2020    7.7899   14.7322   -4.3423   29.9066   -2.9376   35.9825  -31.0601
    8.2460   42.5471  -19.0835   17.7048  -13.8500  -15.6915  -50.6210  -29.4283   -0.5999  -14.0749
   13.8736   -3.1351    4.0608    8.5495   -0.3333  -14.8353  -14.4326  210.8058  -16.3552 -326.0915
  -38.9916  -60.7128  -10.7089  -70.2363  -20.6343  -93.1878 -270.4769   69.9025  546.7471
    1.9048   40.4721  -20.0169   47.3379   -3.4343   15.6188    0.1694   14.0190   11.4114    9.7400
   18.4265   -7.0579   12.1464   23.6944    9.4193  -13.0155   -8.3599   11.2549  -15.5487   20.9888
  -18.9183  -25.0713    8.4050   -9.6249   13.6851    4.2653  -20.3428   -6.4154   17.6402    6.2509
  -11.2102    6.4399    2.1681   21.0089   15.7233    6.1175   42.7613    9.9582  -22.8205  -33.9160
   14.1457   -4.2096    6.8614   29.9829   -5.3696   -6.7965   11.1489  -14.9331   12.5491   11.3496
   -5.7981    1.7778   25.3109   12.8565   10.0838    3.2603  -26.6651 -201.8595 -241.7131   42.7511
    6.2108  -24.3028    8.4520  -54.4380  -41.8867  -41.9337  -10.3386   -3.9514   46.7780  388.6509
   51.7317   65.6963    1.1883    8.5738   32.0402   24.1156   38.1610    2.4689  -22.9121    9.8667
   24.1922  -23.4918    3.3544    3.7072    1.9357  -21.0570    4.8711  -13.7933  -10.9065   42.3778
  -17.0249  -11.8169   17.3370    3.7383   -0.8667    7.7276  -19.4576    7.4763   19.8413  -15.2875
   -8.9146   18.0979   -1.4749   20.8396   19.0370   13.9278   20.1562   27.5448  -15.2388  -28.9239
    8.8180   -8.6091   26.0033    2.3877   11.0996   10.1311   14.7190  -23.4361   39.4257   -2.4429
  -25.8463   17.5048   30.9654    6.6446   10.6730   -6.6723  -11.5175 -186.0003 -361.0279   47.2541
  -25.9983 -113.4970   -5.2359  -57.1979  -35.6027  -61.7875   -5.4115   29.7968   46.4609  293.9910
  574.0588
   11.1005   10.7192   11.6566   11.6648  -23.1341   -7.4523  -12.0176    2.6525   24.3692   -5.9980
   15.6628    6.1086    5.4097   21.2032   10.0796   -7.3964  -11.9660   -9.2882   -6.0494   10.9920
   -2.5340  -24.9531    7.9549  -14.1468    7.8934   -4.8690  -25.7476   12.3648   22.6719   -0.5640
   -3.5758    1.4927    2.8692   11.9019    6.5536   -2.5654  -39.4620   -3.0740  -18.3372   34.4670
  -16.9223    4.1892   15.5080  -18.1867   23.9595   -2.6611   27.1491    2.6211   -5.9629  -17.0941
   -2.3626   -3.5238  -24.6753   -2.1434  -14.1481   14.6403   -8.4458  -15.8286    0.8435 -121.6560
    9.5514   26.7379   22.5930    0.9672  -25.4493   42.5417   47.0371   36.9627  -21.2708  -31.4767
  -38.1242  166.7454
   30.9365  -21.3995   -4.4796   17.7586  -34.8239    6.2476    9.1821    8.5978  -35.5804   -6.9975
   28.9567    6.8446  -11.3195    0.4479    2.2797  -26.6274   -7.5171  -15.9611   -8.4374    1.2407
  -24.6918  -12.6649    6.1075   13.1701   -7.0415   -5.5064  -18.0896    8.9862   29.4986   -3.1017
    5.1122  -14.3782   11.8987   34.8239    0.4694   -7.9962   10.7591  -11.6253  -14.2465   -3.4438
  -19.3384   19.9561    3.2697   20.8949   12.6377  -11.8737   16.0644    3.1205   -1.0443   21.0072
  -17.5502    2.7495   -8.3011    4.5353    2.0476  -11.3069  -26.6559   -8.2615    5.8318   15.6783
 -177.5223   94.2194  198.7922    3.5962   23.6228  -31.6105   -7.5053    4.1258    6.3407   23.6522
   14.6331   16.8463  248.6663
  -19.7788   40.6242   -4.9482    4.8286    7.2834  -28.4589   -6.2285  -31.3464   51.9996  -11.2558
   21.7056    0.6367   -3.4562   17.1715    0.7599    1.5207    7.8057   -9.8532  -13.2926   21.5543
   14.1604    5.5061    9.5192   -1.9909  -12.3913   -7.7065   -3.0866   12.3935   11.6067   -0.7723
    1.3794    0.0157    3.4754    0.4873    6.5440    6.5146  -10.7239    7.9906   -9.7348    8.3923
   -0.6804   18.0014   16.2611  -21.2383   17.4439   -8.6780   -7.8719   -0.2398   -2.7391  -13.4626
   17.8685    5.1273    1.8094    4.3860   -1.9098    9.9609   -4.8635   39.1209  -57.7236  -34.6686
   61.8687 -154.2207 -125.0586   -5.8868  -15.4035  -24.3787  -33.5337  -10.3124   37.5672    2.2759
   21.1317    3.7808 -136.8371  234.7278
  -52.6785   81.4872  -12.8105   -5.6254  -20.3398  -58.0575  -42.1686  -39.5458  102.7091    9.6371
  -12.5328   -6.0616   39.7856   51.0879   10.7674   21.8504    4.7747  -10.9193    0.5707   16.7786
   39.3613    6.5580    4.4064  -12.5747   -9.9762    9.5941   16.4613    4.9181   -7.7693   12.8833
    2.3640    2.3237   16.2741  -14.1327   -2.9182    6.4957   -4.3955   22.1915   22.9245   18.7962
   46.5517   27.4747   26.9123  -39.3729   10.8944    5.6216    1.3721   10.3311   -0.1948  -20.4475
   27.7520    3.4892  -28.0930    2.6452  -25.9710   36.0705   -9.8701  -22.9113  -13.7748    0.3770
  235.9896 -275.9766 -450.6724   12.2068   -1.8233   27.1283   -5.6150   -4.0609   13.2894  -15.7401
   -8.7012   12.7836 -221.2767  254.5058  701.9850
   27.8381  -42.4779  -16.0747   42.1044   47.7624   30.9664   25.8196   32.0869  -36.5358   12.3193
   15.5592   16.0288  -31.1051  -25.3424    5.3098    1.1849  -13.2182   10.8688   27.0887   25.0137
   21.5695  -10.5926   -0.1576   -7.9741    7.3530  -16.9785   -4.8293  -10.0437   29.8877   19.9817
  -14.3321   11.7498   10.9482  -26.0874    6.7358   -5.9650   61.0682    1.8329   20.4752   40.0536
  -12.5613   35.1979  -38.3738   64.4772  -11.9256  -12.1930  -25.1012  -28.6906   -3.5690   18.9456
   15.1162   17.3910   16.4800   11.8510    2.4479   -4.5050    1.8330  -60.1838   31.1866  -51.1221
 -304.3824   42.1237 -268.9901   32.1756   10.6163   15.5103    3.1263   35.8427   60.7482   33.9476
   23.4148  -22.5344   42.4303  -35.2676  -87.0150  468.7859
   -3.8684  -12.1849  -16.7207   -8.6761   11.5401    6.2831   19.4623    8.1556  -12.8437   14.9796
    7.9704   -6.5861    0.5760   -0.5105  -14.0222    0.8565   18.0608   -5.5737   -2.8729    4.3567
   -3.0690   10.1147    8.9755    0.7750   -4.1106   -1.8374   13.4863   -0.5979   -0.8228    2.7889
    6.2816    8.9156    3.6254    5.5434   -2.1444    3.8111    9.4851   -6.1545   10.1525    0.5842
    0.9572   14.4570  -11.1409   18.0930   -6.5195    3.3277  -17.4430   -5.7724   13.0122   -1.7114
   -2.6942   11.4577   16.0585   20.3785    7.2735    2.6570    3.2124   34.7683  -17.7691   42.6446
  -60.0341  -33.4921  -26.7588  -22.6115   15.6436  -16.4156    1.5867   -2.2260   10.8964   15.5510
   10.5436  -10.7148    7.4096   -2.8064  -57.0782    9.8623  160.6393
   18.2500  -26.7736   -7.8095   56.0153   23.7959   39.0923   -1.4937   29.6661  -15.7559    2.7554
    0.3598   35.9644  -10.1375  -26.5565   37.5101   -2.5758    1.8253   25.8771   42.3805    8.5638
   21.3946  -45.5487    4.4643    2.9540    1.8866   -8.4346  -41.8238   -2.4918    5.1516   10.3343
    7.8679    5.1429    5.5903   -9.4904   15.3422  -33.1272   48.8641    0.3418   20.7875   36.9332
  -22.2618   15.0661  -24.0315   62.0003  -23.1030  -23.5354    8.0347  -17.4781  -11.1359   17.4727
   13.3986   25.0844   -6.6026    4.3031    5.4475  -39.7845    9.6507  -54.5787   60.6126  -26.8508
 -247.5177   63.8848 -465.6785   47.0393   10.1242   33.0623  -10.6879   20.2735   40.0181   16.0870
   24.3796   14.4689  -21.4516  -62.8833 -120.6298  385.7553   19.3042  654.0882
 -199.3509   27.9194  -78.5311    1.8575   -6.3929  -20.0896  -62.4002   -8.9688  138.0734    4.3984
  -73.4735  -16.0144   10.3791   42.0203   42.6105  -13.9188  -21.5384   22.6701  -35.1242   17.3748
   44.5850    6.8504    5.3242  -16.4731    8.0780   18.7052   31.4156  -12.6344  -40.5696   13.8942
   19.5591  -17.2206  -44.5568  -41.2066   -2.5486   -1.4941  -71.9140   31.7363   55.1908   45.9213
   21.5396   27.3830   62.0528  -21.6195   29.1710   15.6097   20.9884   26.9660   -2.9286   26.0529
   30.6132   33.8504  -19.6726   -3.1699   -4.0083    5.5833  -11.2587  -57.6261  -18.5412   -5.5829
   27.6319  -31.6513  -21.7930   20.8009   -9.2904   34.6049   32.9650  -19.8515  -41.6484  -22.6521
  -33.8054   -1.6666  -49.0071   49.0651   91.3982  -28.3453    2.2440  -44.0503 1263.1285
  -41.5437 -166.0258   -3.5577   69.4987  -25.5838 -100.9377  -26.6720    6.6774   87.1953  -32.1265
   13.1035   42.4355   -3.5831   -4.5646   18.3368 -102.4255  -34.0961   10.0185  -20.3765  -12.4182
   39.3783   31.2055   -9.1803  -12.9992   23.0711   -0.7559    9.3897  -11.9564   -9.2167   32.8822
  -11.6110    3.1896    4.0861  -32.9317   -0.0250   -6.1894  -25.3640   36.1570   55.6834  -35.2854
  -24.1583    0.1742   25.9648   29.7250   -4.5631    2.4958   34.9407   10.7682   36.4797   14.9516
  -37.2616   26.8903    5.1127   13.8417  -27.8161  -15.6896   -8.0677  112.6206   12.3688    1.0957
  132.7354  -37.7120  -28.8076  -27.2513   -3.1700  -29.9082    6.0237  -12.2632  -27.3000   -3.8694
  -54.8006   -9.8631  -35.1320   17.2115   70.4396   -6.5685  -14.6551  -15.3423  167.0553 1151.2749
  -94.4440   -1.2358  -36.5266    1.1227   -6.0265  -27.4158   48.4442  -14.4883   -9.4353  -23.1875
   23.6464   12.5131   -8.2724    4.9246   -4.0226  -16.6013   -5.2293  -18.7519   53.9403   42.8157
  -30.3751    2.8884   10.4963   -1.9524  -11.3958   -6.7249    9.4779   -1.3165  -23.8117    7.1260
  -48.5429   21.6779   42.7203   -2.7756   -0.7183   -5.9704   59.1910    2.3880   31.5437   -4.3563
   -9.8443 -128.3494   -1.4260   51.6435  -46.7650    9.9062   -5.9082  -14.2454   11.9656    0.6049
   14.4982   14.6275   23.4268   -7.6442   -1.0232    3.0485   -6.2315  -35.4188  -49.1565  -37.6944
   18.0699   -3.9980 -134.6403   -7.7719   -6.9061  -23.8884   -4.1292    2.8738    8.5526   47.0557
   26.2619  -13.8233  -47.3107   19.3970   54.4615   34.5163  -10.3879   52.4144    4.0866   76.3409
 1150.1682
 -353.8079   53.4390  -64.0547   21.3421    8.9144   76.4721   42.1936   -4.6113  -48.7008   -6.9941
   32.5523   -1.1262  -11.9787  -36.2110  -40.5870  -17.4214   11.1811    0.4073   -8.4534  -32.0632
  -10.3075   22.0237    4.5947   10.6121   27.2201    3.9256  -25.9008   20.3124   37.4628    3.5097
  -12.7205  -14.1316   19.1380   54.7339   -3.0206   24.5568   15.7798  -31.9524  -55.2374  -34.2139
    1.3569   20.0416   16.8863   -9.4799    5.7482  -23.0626   29.7760    4.7196  -21.4975    1.6068
   -1.2091  -13.9419   -9.4774   -8.8363    7.0671  -18.3411   17.1684   45.9668  -70.3700   31.2639
  -63.3468   68.0114   18.5044   36.4593  -10.2765   -0.0085   -8.5225    4.4372   16.9551   22.6296
    8.7367   -1.8177   46.6475  -14.2962  -66.1010   19.6975    3.8189   24.7739 -321.9743 -187.7994
  -28.6409 1130.5219
   90.4977 -186.9877   91.0818  -52.0833   11.0677   -5.3886   12.1572   19.6074  -64.6740  -15.5280
    2.3878   -9.6189  -28.2294  -35.1537  -26.2435  -70.6950  -34.0486   -1.9281  -40.0050   26.7109
  -16.3248    9.4901   -3.1125   -1.5294   22.7890    2.9412  -22.9178  -10.4127   12.0523  -16.0499
  -35.5813  -23.2763  -11.0798   20.5311   -6.0321   11.2004   17.9136    9.7113  -93.6495   -8.5688
  -49.3198   26.7445   15.1303  -23.1557   21.6754  -18.9023   60.2711   23.1316  -33.3538   25.9340
   20.3867   -3.2130   -0.4061    1.0842  -31.2551   27.6615  -30.0045   30.0484 -101.1898    1.8133
    3.7624  -14.5372   47.2448  -11.1306  -22.6683  -11.0657   -5.1146   -7.2565   -1.6976   29.2953
   14.6775  -12.2750   27.6148    6.1200   -8.4155  -43.8880  -27.2696  -95.9854 -165.7821 -315.6403
  -57.6512  122.1767 1073.8007
  -51.4352   42.2082 -165.2254   19.6231   -8.6465  -22.6295  -21.9591  -25.9753   55.4884   18.4049
  -25.6925  -39.9502   30.3880   20.5665  -26.5856   15.8941  -16.4797  -61.2886  -32.3267   -9.6476
  -58.2274   31.8638   -9.4928   31.3566   -5.2691   20.0557    8.1395    6.3265    4.4996  -16.8852
    7.2142   -1.1154  -29.4163   56.4241  -10.6958   21.0423   61.4675  -18.3438  -75.1973  -25.2610
  -29.9858   34.2109  -25.2499    9.0435  -11.9669  -17.9207   11.8778  -11.5993   -1.2615    2.8090
    3.1359    2.1864   20.1346   15.3825    0.5788  -13.4193   -0.9351   20.4533   -9.1810  -20.8902
    1.3109   -5.1058  -36.3916   -7.3294   -5.6018   -9.1540   -3.5566   -7.9800   19.7165   17.7388
   37.5450   -0.7924   18.4227    9.2648   -6.5727   18.9565    8.2326   22.0898 -160.7101 -108.6742
 -386.2523  -34.4584  125.7692 1332.8822
  -18.8017   27.3162  -27.9100   -9.4261    7.9643   45.0678   25.2935  -22.4877  -38.4039   20.8714
   10.1399    7.0270  -10.3449  -24.5796   -5.5438    2.6955    7.2105    5.1524   12.2787    3.9776
   -7.4650   -3.8440    3.3305   26.1841  -25.5287   -0.0339   -4.9309   -0.1975   -8.0334   -4.9818
    2.7370   -9.0512   -3.9548   17.0317    3.0185   -6.6518   36.9564    5.8641   11.9744   40.1805
   -9.2530  -19.2013  -15.1410    7.2877  -38.1137   22.2604  -51.4405   -1.1363   19.2099    3.7930
   13.0991    8.0665   27.4813    2.1599   32.4223   -2.6949   12.2206  -13.0193   14.9874   -2.3008
   -4.9558  -10.7759   -2.1803   -7.7105   -0.7835   -2.4084    9.6729   21.6327   12.6949   15.9244
   14.5330  -25.9673   16.5932  -13.0560  -28.9324   20.4389   18.0669    7.0465 -175.3945  -79.8374
   92.5736    0.6714  -39.5518   15.5514  262.4842
   57.7985   31.0116  -62.2019  -47.1599   43.1911   99.2657   74.7113   29.2648 -123.6727    2.4905
    6.3605   52.7579  -35.2827  -73.7115  -28.1294   12.9376   63.8616   -2.4669    8.2870    3.2098
   26.7872   29.5886   -0.0075   51.4817  -33.5242   15.2583  -11.6572    6.8675   -0.2572  -27.7915
   69.8482   -3.8982  -24.9549   37.6372    8.9782   -5.6407    8.0586    0.1736   28.6376   -5.2570
   38.4098   20.7364  -34.6997  -25.0008  -53.8333   34.3573  -88.7721   -9.8066   12.6582  -20.2255
   -0.5375   -5.3606   17.9845    4.6094   84.7496  -62.9043   24.2470  -22.5193   42.3467    3.7257
   -8.6515    5.6215   10.5239  -49.4407    6.8177  -27.9853  -53.2485   48.7675   74.1347   11.6905
   52.0660  -36.5395   15.8540   -6.3516  -37.0967  -11.8143   31.3672   -7.9930 -204.8562 -454.4432
   43.5125  -29.5802  -63.0738  -20.4254  221.6585  883.4588
  -38.5223   -8.4025    2.0032   18.2349  -49.0435  -36.4588  -58.8502    4.4661  101.0441   14.3070
  -74.9429  -35.8295   62.6777   77.1896   11.6509   18.2160  -25.7585  -11.4879   -4.5655   -2.6363
   19.9357   29.0349    7.3073  -37.3740   53.2473   -2.1907    3.8443   20.3543    3.1710    3.2098
   -2.4567   -4.9798  -22.8455  -24.5380   -8.1957    4.1142  -64.6131   22.9575  -13.9492    9.5243
   -5.5475   26.2646   57.7489   -8.2754   31.2205  -19.5609   79.3730  -14.8637  -32.8364    4.2489
  -20.8406   20.2690  -24.8021    2.5891  -56.3301   23.5883  -37.6793   35.9074  -19.1854   -7.8906
   23.1779    1.6535   38.1671   23.3323    6.0126   36.2403   -1.8723  -27.2921   -8.8216  -25.5915
  -44.5881   43.7757   -4.1736   30.6036   47.6405  -33.4902   -8.3229  -44.5689  206.3514  178.0416
 -222.7184  -68.1260  -16.4536   10.7767 -122.8322 -275.8995  472.0265
  -26.0401   -0.3945   23.2374   27.2391    1.5143  -17.3177  -21.8651    7.2049   42.1968    3.5738
  -25.6964  -26.0977   27.6508   31.7786    7.2623   -2.3923   -2.0140   -8.1195   11.7267   -2.0753
  -10.8564   14.6324   -2.0536  -16.1155   32.2963   -6.1580   -2.6622    1.6433    2.8399    9.7006
  -23.1366    4.0346    2.7804   -0.7545    0.8271   13.4346   39.8060  -10.8440   15.3963    7.7700
  -16.3357  -78.8986   22.9490   21.3045   25.1268   -2.8600   36.8844   11.3028   20.7529   -1.3057
  -12.0799   11.6906   -1.2943    1.1158  -15.1596   17.9006   -6.4536   13.5522  -50.6561   -2.1851
   -5.2056   25.6969  -19.2867   20.5096    2.6415  -10.4531    1.4788  -15.4639  -17.3502   23.2245
    7.7768    2.3019  -11.0176    4.7343   19.1256   12.7179   -5.5400    6.4732 -167.2277   48.8002
  197.2402    9.1754   -0.3784  -12.2557  -31.7752 -131.4232   49.9573  349.0113
   17.3030   65.3587  -20.4691  -14.1366    7.8976   36.9787   25.6447  -10.0076  -38.1105   -3.3062
   25.7468   -1.2616   -4.4120    0.4640   14.5916  -11.0220   -8.5656   16.5688    5.3651    9.3831
   14.2628  -39.2900   -1.4540   34.2342  -15.9822   11.5247  -19.2426   13.2923   28.1677   31.3006
   54.8704   -6.8881   -6.6806   12.8244   -1.2048   -7.7653   43.0008   -7.3347   10.5904   37.5288
  -30.6529   26.2950  -34.5490    4.3215  -29.2252   14.0375 -104.1873  -17.0976  -17.9629   -7.1954
   54.3630   -2.9967   56.1373    7.1748   19.5522   45.9593  -10.6900  -29.7678   22.3750   -9.5063
  -14.5866    4.1397   -0.7947  -22.7966   14.6976  -26.5788  -16.4257   24.6273   18.9784  -15.2322
   20.1069  -20.3607   -3.3431   15.3977  -15.5024   -6.8625   26.7980    1.7819   43.9393 -275.4528
  -79.7405  -46.6180  -68.9155  -43.9212   -7.1201   54.7421  -22.2672  -40.2268  427.8230
   55.9137   21.6801  -72.3001  -44.4574   34.1186   36.5963   79.6539   12.0427  -65.8570   -0.8836
   36.1344   52.3301  -23.9884  -68.8061  -14.5603    9.9294   46.0169   15.0806  -11.4413  -14.1535
   56.6375  -16.0065  -18.0641   44.0909  -62.7058    4.4563   -1.8152  -11.0250   -7.4678   -4.4010
   58.3837  -44.8237  -41.3881    8.4130    4.6097   -3.7313  -23.8837  -20.4623   -9.8329  -22.8150
   54.3001   97.1912  -16.5253  -28.3081  -43.3931   34.6046  -64.5376   13.1814  -19.2743  -10.1955
   19.7395   -3.2694   27.3073    7.1266   91.6636  -52.2578   44.3320  -40.9213   54.5174   43.7107
  -15.7241    0.3832   -1.9232  -33.1214    3.6214   10.7687    6.3998   26.8088   27.3602  -14.7515
   25.6660  -17.5584   -5.1404    0.9180   -7.2079   15.7038   31.2211    4.9654  123.4886 -184.6815
 -447.8746  -28.0757 -106.6341  -55.7919   73.1708  294.5509 -129.5650 -326.7798  213.7842  891.8921
   53.9381  -38.0588   -4.2467    2.4225  -47.8630   57.6002   63.5297   30.3218  -96.3531   25.5408
   15.8869   64.2351   11.3666  -36.6586  -12.1716  -17.9673   -6.1083   -4.1054   13.4331   28.3873
   20.0008   31.2214  -19.3351   48.6894  -37.4977   12.2593    7.6785   -8.5466  -12.9455  -19.7355
   33.8457   -7.4528  -20.5167   -3.7491    6.5402   -4.5223   42.3300   -6.6629   -2.8451   -2.8877
   -2.4895   19.6895   13.2910  -13.0115  -10.8150   34.4792  -13.1807   10.7934   31.0834   -1.2103
  -47.1890   14.7140   19.6923   21.9144   31.7621  -20.8779   11.4114   17.8056   65.7826   25.0484
   26.4543   -6.0581   11.8349  -24.1513    8.5880  -11.0038   20.8891   17.9260   -5.1456   24.8446
   25.4832  -21.1744   34.0743  -45.4670  -52.2838   33.3231   17.7415   41.3295 -462.2486  122.1148
 -122.9856  -59.8196   -3.5481  -38.7173   57.0223  223.2314 -115.5409 -113.8644   20.5510  195.5767
  722.7283
  -53.9771    5.0641    7.7218    5.8142   35.3412  -23.3725  -52.6858    2.0413   93.2722  -22.6285
  -57.6840  -28.9759   13.6244   49.9744    5.0599   28.9004    8.0307   -6.4064   -8.2223   -4.0918
  -11.5991   19.4787    9.2758  -21.0680   43.5327   -7.6047    8.5175    6.5427   13.0346   23.8482
   -1.8880   16.2355   15.6282   23.4441  -10.1806    3.5345  -17.6700   22.5113   15.0507   -4.7788
  -12.5839  -36.3883   13.7055   -0.4445   25.6603  -20.6559   14.5360    9.6088    6.6738   -8.4357
   26.0623   -0.1118  -26.6762   -2.6854  -39.9026   13.7309  -20.4916   13.0919  -32.0740  -10.7127
  -14.6622   13.1012   -4.3134    6.8367    0.6940  -18.9128  -30.9128  -10.6688   -2.5398  -24.2124
  -15.2659   14.9787  -23.2473   30.3113   39.3108  -32.3963   -0.5819   -9.7937  271.9028 -184.7519
   95.9644  -14.2123   27.5768  -19.1163  -23.2254 -149.2938   96.4075   98.4908    2.9864 -137.6877
 -367.4471  431.5080
   27.5293  -10.7272  -19.0549    8.6167  -36.9574    1.3304   49.5560   -0.2119  -41.0269  -20.4132
   46.2251   16.5615  -19.3254  -25.6388   -1.7593   -5.9328    0.8867  -10.0909   -6.8143  -11.3693
   13.6176   25.3491   -2.5394   30.6685  -24.1357   -3.3799    9.1240    5.9375   -5.1229   -1.6132
   20.1240   -6.2274    3.3690    3.7279   -3.0517  -10.0212   11.9469    5.5508  -10.1290    1.8792
   22.6948    0.9476  -14.2240   14.1226  -25.3294    6.4330  -22.4725   -5.9774   -1.7568   14.5537
  -10.3093    7.3598   15.6595    1.1290    8.8913  -13.6635   15.9931  -13.4690   17.9693   -0.4470
   21.4989   -9.3449  -12.8893   -6.3667    4.2475   -4.8491    4.3207   12.4320   21.5047   14.8564
   17.8382  -11.4172    1.9105    0.6597   -0.4514   24.3379    2.3115   34.6514  -97.8316   79.8813
  -97.4524  -66.4860  -22.5700  -15.2873   -3.3194   41.6160  -29.7042   49.6724  -15.3977   37.2732
  156.4739 -108.4424  253.1121
  -28.1428   25.0966   10.8074   -2.0392   -5.3713   -6.3029   38.6554    6.9128  -24.5239  -14.1076
   -1.3000   10.3658  -23.6929  -21.6272   -9.5794   -9.0840   -2.1228   15.8997    5.5551   -3.9392
   -8.6942   17.1357   -2.8794   16.5635    2.6070   11.1420   -4.5810    5.1611  -11.3672  -10.6644
   39.2323   12.2999  -26.3068   -4.8309    4.8619   -7.5893   54.8110  -22.1019  -26.2887    7.9339
  -11.3150   -1.6844  -10.2803   20.5524  -30.8682   -0.6567  -10.5676   -3.5952  -27.1577   16.2925
   22.6313    3.3290   11.1342    8.2399   18.9451   -5.2468   -5.2604   -5.2475   19.1065   10.5629
   10.2522  -28.1566  -23.0366  -17.3074   -4.7087   -8.0443   18.9313   -3.5217   -3.7701   19.4383
    0.8648  -18.4775   15.8330    5.2351   -5.1245   -5.3025   -5.3853  -15.6274    7.2956    1.4430
  -31.7639 -157.0876   17.4318  228.0570   35.2136   24.3750  -27.5052   -9.3558   11.0832   26.9356
   41.6596  -19.3914   21.0565  277.6830
   17.9736   14.5348   -9.9273   -3.3106   33.2793   -3.7198  -21.0578    6.1444   10.2175    6.0654
   -7.8709   -1.0307   19.9341    6.4687    4.2273  -15.2824   -5.1215    3.2221  -17.2481   -0.8942
  -12.3052   -0.8482   -6.3492    1.2977   30.8465  -14.6627  -31.0297   35.9154   42.7513   21.3290
   41.1677    4.4204  -20.3958   21.8414   -0.9516    0.3843  -33.5123  -11.9943    0.8830  -13.3102
   13.1875   -4.8981    1.3070  -33.2251   21.9278   -4.0112  -34.4566  -20.8365   13.8030  -29.3966
[...]
  -11.3222   27.0352  -13.7847  -10.1237    8.9173   10.0827    0.1903  -27.3153    3.1295   11.5140
  -17.7998   11.1389   -9.1065   11.8039  -13.7838   -4.3239   20.9338    0.1516    1.0565   19.1907
  -28.9797    3.3696   32.5936    6.1542   -4.2084   21.9446  -30.7763   18.1370  -29.5853   17.4605
   -1.9348   10.9208   20.9462  -30.9960   26.7365   -1.9472   12.8509   13.1184   -4.2896   -0.7650
   -0.8711   -1.9972   -8.3004   12.4551   -8.7841   10.5402    6.1294    4.3190    6.0827    8.1457
   -8.4137   -8.4417    6.0266    9.2146   15.0352    5.3211    0.6746   13.8838   -9.5509   -7.1145
  -15.7554    8.9158   -3.9189    3.5275   10.2617    0.8397    6.9981   12.8545   10.8506   -9.0138
  -36.6331   19.4725    8.1407  -11.9285   -9.1971  -11.2701   16.9104  -25.1347    2.7716   27.6359
   16.7546    2.6732    9.2731   -8.0335   16.7548   38.6538   -1.4504   -7.2627   13.6127   26.7877
   25.5499 -128.2510  -61.3596  -27.0893  -19.0032   25.2730  -30.6640    9.6756  -91.0055 -211.8355
  335.3932
    0.3549  -10.4921   25.9908   -5.3009   41.6651   23.4807   10.1141   -9.2387  -26.1075   -2.5712
  -13.9576   -3.2445   -2.9922  -22.0953    0.3997  -31.6218    3.9743  -14.9590  -20.0680    4.6798
  -41.7589   41.4865  -15.1966   37.2688    5.8628    8.0533   -6.6198    1.9689   -6.3915   -7.4576
    8.9636    7.6302  -13.1656   24.2296    4.8935   18.5639  -15.8239   56.1154  -31.0073    1.4990
   19.5691  -37.0165   21.4788  -27.3417   14.4946   -6.7516  -35.0492  -17.9215    8.8945  -13.1603
   -1.6412  -13.9501  -13.5052   -1.6380   -1.4319   -7.7201    3.9269   42.9263   -5.0950   10.9361
   15.0014  -26.2676   43.6694  -33.2438   18.2412  -31.5138  -32.3975   15.7315   20.1719    1.3136
    3.2516    8.2603  -16.3596   -6.5761  -14.3428  -35.9603   -3.1225  -25.5949   -6.2479  -83.3601
   19.8149   -0.4142  -28.2838    6.3958    2.1164   50.6692  -18.6760    0.4164   22.8614   12.6109
   -5.9268   14.3281  -13.5445   -5.7600   36.4951   21.7629   12.0974   23.7614  -21.9326   18.1982
  -62.7317  -30.3026  -33.9716   33.5870   -2.1124  -16.4498  -28.3777   10.0748 -560.8480-1113.9065
   83.3092  635.3960
   -0.5386  -19.4082   64.5042  -31.8764  -25.9153   74.0532   35.6189   12.9117 -102.3429  -22.0768
   27.0242   11.5485    7.1073  -28.3674   11.9962   15.4854  -10.9454  -58.6253    1.2265    4.9256
 -112.0423   26.4281  -10.9928   50.4004  -21.3475    8.7279   16.8164   -9.1914  -22.7753  -16.5183
  -41.4205   32.6158   30.1242   21.9514   19.4855   33.5753   -3.8090   32.3381  -37.7767   55.1945
   16.4269  -65.7353    6.2548  -29.2950   24.1312   -3.2770  -23.6531  -11.7716   17.9683   -5.3369
  -15.3865   -9.5706  -19.5593    1.0974  -24.2846  -10.7409   11.8531  -37.4123  -72.3878   -0.6539
  -51.6995   27.7052   94.4031    2.7627   17.7243   25.9236   17.3289    8.7956  -25.6602    7.8749
   35.7689   16.0844   26.8324  -42.5643  -77.6788  -28.0713   14.1492    4.5741  -43.7537  -27.3311
   10.0519   68.2723   71.0008   -8.1855  -35.6969  -31.3309   -2.8864    8.0310  -20.9048  -71.0866
   14.0952   -7.1687   -3.0710  -30.1605  -18.6602   78.3395   37.3060   14.0408    1.2538  -14.8668
 -104.9370  -42.5922  -48.5008  -25.9323  -12.5241   -6.7466    5.1601    4.5865-1084.3068-2615.5345
  178.9929 1095.5789 2689.4123
   -7.5721   29.9241  -21.6180   25.8795   -3.4927  -30.5954  -10.5987  -12.7334   41.8390   -6.9480
    5.5027    4.1183  -11.1223    2.7246   10.1460    3.3840    6.6648  -19.2357   20.2489  -17.6389
   26.0012    7.5456    1.2364    6.6136   -8.0326   -2.0903   18.5114    3.4698   -1.0312   -0.6663
    5.7435  -14.3443    0.2969   -1.0440   -0.3556   -2.1855    0.9665    4.0720  -28.4764  -15.6771
   27.4878   15.7729   -5.5341   13.3435    9.1181    1.3723    6.4802   12.4540  -22.6371   -0.2848
   43.7747   -1.6269    5.1486    2.6703   20.3581  -16.3169   22.7179   15.7572   -2.5206  -16.2028
   -3.8732   -8.7816  -31.4150    0.2221  -14.8803    6.5297   -8.3256   -5.7013   23.7466   -2.7974
   -7.5425   -0.5349   -8.1257   18.5301   31.7533   16.3677   -3.7219    9.8909    0.3123    1.2624
   -7.1062    3.3991  -15.3965  -29.6865    1.9491   16.3840   -4.9081  -15.1251   13.0146   45.0466
    3.4735   -6.2973   14.2344  -10.7297    6.8450    7.4253  -10.3254  -12.3295   10.4042  -44.2353
   26.8072   61.3418   86.5750    6.1068   15.0084  -33.5455   33.0567    0.3170  117.3553  233.5630
 -125.4056 -122.1158 -239.6514  253.5649
  -24.8990   11.4600   38.3630   13.1814  -56.3450  -24.9585   27.6053    1.5790   18.7121    3.7033
   52.7741  -11.6045    9.5835  -18.3483   11.4843   39.5283  -12.9895    5.4924   23.1111    9.7953
   -1.2295  -11.7652   11.3179   -5.8735    0.3040   -3.7873   -8.9664   10.3545   22.6328   -5.8150
  -12.3724   -5.9292   -3.8266  -13.2270   28.0378   -2.4505  -18.8534  -26.5432  -18.1982    3.0589
   -6.6571  -29.5730    9.0056    0.9590    6.7354    7.0010   34.2556    2.9437   19.3750   18.5796
  -21.1196   10.3269   -9.8439   -5.7184   -0.4424   25.3549    4.1219  -50.4463  -34.5652   19.1057
  -31.6217   48.2209   -4.9227  -10.5835    0.3330    1.4593   19.3155  -12.6716  -29.1464   18.5070
   39.9997   -2.0791   10.8751  -26.5068  -75.9425    8.3585  -20.3811   45.4797  -42.9673   33.6823
   20.6453   28.9368   41.0400   11.4173  -20.7041  -46.2507    5.8269   14.8399   16.4199  -30.9062
   31.6745  -39.0641   19.3809   12.2338  -28.0035    9.7334   12.5602    5.5711   -2.8093  -87.8676
  116.2368   14.6649   11.5138  -25.4536  -11.2255-1171.7990 1440.0418 -124.2165  -13.0802    9.9241
  -30.1489  -52.1988  -41.8343   47.3861 1281.4491
   13.9929   -6.4339  -36.3272  -36.7519  -10.9356   29.1564  -19.9453    7.5567  -31.3486   -7.9156
  -50.7082   29.0892   32.8590   53.7750  -13.4398   18.7765    8.0594  -28.7540   10.9413  -11.1876
  -16.4593   -2.6890    1.9759  -12.9762  -30.3147    9.0498   42.6125   -9.0073  -17.5022   -0.7555
  -11.5222    0.6637   19.6166   -5.0027  -23.7140  -13.1951   52.0157  -42.4172   11.5447  -22.8891
  -12.2866   46.6819  -32.3748   27.8929  -18.5267   -3.5142   -1.0166   25.9059  -32.5802  -10.7695
   18.6987   -1.8621   22.8918   10.3949  -16.1854  -23.6615  -20.2714   -7.2464   19.8794  -16.7463
    7.2316  -14.5612  -16.8014   23.7928    2.7593   15.3977   11.1650    7.8781    4.3708   -9.1507
  -36.6891    1.2412   -2.0346   18.7802   69.0994   14.0434    8.0373  -14.6283   39.4902   17.5215
    0.8277   -1.3992   24.3177    3.6635    4.5861   11.2694   10.6469  -14.0051  -52.5961    7.5425
  -15.0446   40.7682  -16.2925   -4.2657    8.2324  -44.4553  -27.8940  -58.6486   28.7091  147.4405
 -126.9334   -4.0156  -65.8692  -39.1046   34.1409 1409.9897-1964.6802  157.6818   10.4077   45.3792
   31.0963   -6.4066  -34.7958  -71.2159-1423.2595 2049.7844
   45.0388  -25.8250  -60.6138    2.4050   16.4208  -28.5173  -27.6319  -22.4327   47.8464  -10.5251
   21.6584   10.2215   -7.7826   -3.3608    6.5755   18.7144    2.9291  -28.2407  -15.3687   -2.8142
   -9.5006   -0.2077    5.0332    5.0531  -23.1469    5.8836   27.1158    5.0099    6.5863   11.0684
   -4.4428  -11.4792   24.4226    7.1037   -8.2613   10.0711  -16.2136    1.2337    0.9125  -60.5253
   -8.0202   43.9234   -5.0218   -9.2827   -1.8561    1.2353  -10.9478    9.0968  -11.3502   -0.9119
   12.7724   -1.1685   17.9023    0.7983   -7.6071   -1.8593    7.5194   17.0808   16.3018  -36.0967
   -5.7321  -13.2095  -10.8286    1.4248   -4.9540    2.0385  -21.0656    2.1607   29.8736   -6.5662
  -16.5628    2.5144   -8.2399    7.8571   18.4098   11.5712    4.4129   23.2653   30.3579   31.2383
   -6.1549    5.0679  -22.5429   18.9315  -10.6501  -29.2073   17.0055   -1.6184   -7.0916   -3.5169
  -28.1169   15.2363   16.3673   -9.8581   15.1652    7.5293  -17.9029    2.2057    7.7446    0.3812
    1.0344   49.0059  -53.2100   12.3485    0.3822  -52.0513   71.8633 -124.8510  -35.5325  -13.4991
   -3.8498   19.3436   22.0811  -63.1529   35.1433  -61.7829  281.4510
   41.5754   13.2506   40.6205  -44.0367    2.6408   34.6481   20.2755   16.7956  -84.7751    4.8164
  -26.5452  -11.9525   26.6552   13.1407   -1.3622    2.9443  -67.5693  -19.0927   25.5134   -8.8851
  -30.2815  -35.7658    1.5492   -1.4549    1.7359   44.3818    1.5298    2.3298   29.4739  -10.0141
  -26.3413    3.8186    8.3856   26.6140  -18.1335    9.5645  -18.8197   25.3971  -72.1592  -27.7015
  -33.1885   35.0539   18.5496  -33.5810   20.4197   15.4733   19.9648   11.7660    3.7849   13.9263
  -13.8728   -5.8461   18.0171   -4.5606    7.3973    1.0424   -8.8642  -48.4991   31.0609  -63.2363
   44.8059  -28.0081   16.1566   35.5933    0.6558   41.0177   19.2261   -4.8625   -3.7222   11.4259
   23.6228    7.1363   10.9846  -14.9020  -26.5273    5.4699  -10.6524   21.9540  -72.3027  -26.1222
   13.9282  -29.7520   47.3456   13.9559   14.6802    5.8271  -34.0892  -25.8074   -0.8305   -9.3203
   62.6925  -59.2774   20.9050    3.3420   13.8028   18.4410   25.9584    8.8039   -4.3987  -30.0666
   -7.8970  -33.9286-2905.1812 -429.2410 -322.7512  -77.5503   -7.7906  -56.5993  -36.5095   15.6596
   33.6166  -15.9566   34.1962  -60.4890  -23.7970    8.5131   55.1182 2891.3530
   33.0861   -1.7865   14.7467  -11.0133   36.3334   24.8404   18.4751   -9.6380  -39.0315    2.7058
   -2.7683  -10.4616  -14.2178  -12.5202    1.6262  -49.4241  -14.0608  -31.4729  -19.8853   17.1507
   -7.1934   27.4678   -3.8828   17.3239    8.0168    4.2243    2.5756    6.8806   19.7481   -6.4961
    6.0106    4.5233    4.2950   24.4612   -6.0412   17.0696  -14.2148   24.7888  -26.3657    4.9407
  -17.0949    6.7342    6.4759  -24.5098   18.8179    1.5377    0.2188    9.5180    3.7020   -7.5012
    4.2574    0.5742   -6.6442    2.1864    4.1801    0.5443    3.3793   33.2718   25.1360    4.5325
   14.7936    3.1822   13.2370  -12.4683    6.8122   -9.7722   -9.3219   -8.8008   20.2176  -17.7180
   -3.5478    4.5495    4.0411   -5.8988  -24.3255   -9.3890   -1.2522    3.8654  -23.7895  -86.5975
  -27.6923  -24.9121  -22.2714   13.0598    8.9061   32.8751  -23.4356  -18.2989   31.4234    8.1087
    7.4140  -14.7174    4.4925   -0.3676   15.7805   28.6437   30.9559   40.8121  -36.6780  -26.1344
   47.6749  -12.1248 -392.9936 -142.6571  -45.1468  -47.0291   -6.6790  -11.9624   37.1885   20.2800
   18.9828   21.1679  -67.3614  -15.2651   11.5939  -37.2365    9.3570  367.1927  197.6660
  -26.3937   15.3475  -31.5119    6.6806  -37.9450   -1.0386   -2.5968   -3.1658    0.0230   -2.9476
    7.5750    9.8018   11.9218   13.9816   12.5017  -11.7600  -12.8919    9.9874   -7.2058   34.6438
    3.1493   20.5514   -4.0218   21.9961   -2.5264    8.2472   15.6660   -3.8420   -6.7510    2.6069
   12.0993   -4.4642    0.9845   24.8182   -0.7940   11.0604    4.6221   21.4080  -29.5084   17.0909
    5.0460   13.6437    3.9563    0.7403    5.2046    1.1913  -12.4676   10.4706  -10.3694   -1.5980
   23.1747   -0.8273  -10.9950    1.4770    8.7765   -6.7262    7.3904  -18.2925   -0.0759  -29.5027
    4.1995  -17.0623  -15.2095   15.1459   -2.1150   34.4061    0.5848    6.7862   14.6812   -5.2302
   -2.2618    8.5627  -11.5074    2.1981   16.2066   15.3690    0.5258   19.5446    9.0564  -15.6001
  -43.9481   -2.7114  -11.4761  -35.0573   -7.5081   13.0300    2.0807  -11.0536   21.0971   53.4078
   39.2258  -25.8362   23.0979   -3.8915   21.0198   43.1806   -5.2950    5.7000   18.2624   27.7289
    7.1570   42.1113 -379.3505  -56.9991 -131.1357  -33.3041   29.6945    1.7907  -27.7260  -61.5370
   14.9718   31.3453   67.5103  -71.6714   25.9424  -40.6602  -49.2902  350.5462   47.5993  273.4268


      MOLECULAR POINT GROUP   :   C1  


          ALPHA EIGENVALUES  
 -34.04429 -30.05955 -30.05655 -29.91730 -24.62610 -22.48508 -21.75601 -21.02598
 -20.37566 -17.46714 -15.86724 -15.78591 -15.29582 -15.29488 -14.39962 -12.29661
 -12.05087 -10.34925 -10.05126  -9.87083  -9.64962  -9.53471  -9.31215  -9.20501
  -9.20428  -9.08636  -8.87489  -8.71272  -8.56794  -8.41705  -8.41456  -8.13517
  -7.95215  -7.71599  -7.71557  -7.54547  -7.37360  -7.13570  -6.79163  -6.49877
  -6.34387  -6.10033  -5.63362  -4.46794  -4.08572  -3.65388  -3.14170  -3.02652
  -2.11941  -1.60179  -1.33842   5.88325   5.88684   6.14017   6.14283   6.64204
   6.83714   7.32827   7.72506   8.58926   8.83615   8.83862   9.07848  10.31975
  10.48408  10.51846  10.54794  10.65270  10.66250  10.66455  10.66826  10.73596
  11.03807  11.10970  11.13497  11.25599  11.40477  11.46478  11.53363  11.65648
  11.85084  11.87096  12.24813  12.31803  12.52398  12.54393  12.68394  12.93675
  12.97468  13.07462  13.32194  13.42478  13.57200  64.72835  66.08600  66.38547


           BETA EIGENVALUES 
 -33.98547 -30.05953 -30.05654 -29.91729 -24.48912 -22.48508 -21.74175 -21.02137
 -20.37232 -17.39897 -15.84380 -15.78179 -15.29583 -15.29488 -14.38502 -12.29381
 -12.02134 -10.34925 -10.02030  -9.85436  -9.63551  -9.51422  -9.31214  -9.20501
  -9.20427  -9.06915  -8.87179  -8.71848  -8.56974  -8.41704  -8.41456  -8.13516
  -7.91700  -7.71599  -7.71557  -7.50108  -7.36421  -7.08689  -6.73997  -6.42381
  -6.30967  -6.06897  -5.59224  -4.23913  -4.08573  -3.49152  -2.97364  -2.84238
  -0.86039   5.88326   5.88685   6.14018   6.14283   6.64204   6.67852   6.88866
   7.32257   7.32826   7.93841   8.83615   8.83862   8.88903   9.07847  10.30235
  10.50023  10.53022  10.54773  10.65163  10.66251  10.66455  10.67175  10.75219
  11.04444  11.11218  11.13706  11.25600  11.40730  11.46593  11.53026  11.65955
  11.84805  11.88072  12.25647  12.32145  12.53020  12.54856  12.69354  12.94759
  12.97740  13.07100  13.41544  13.55874  13.77322  65.29611  66.91118  66.98065


              NET ATOMIC CHARGES AND DIPOLE CONTRIBUTIONS

  ATOM NO.   TYPE          CHARGE      No. of ELECS.   s-Pop       p-Pop       d-Pop       
    1         Mn          -0.061763        7.0618     0.99295     0.40629     5.66253
    2          N          -0.490325        5.4903     1.47301     4.01731
    3          H           0.256119        0.7439     0.74388
    4          H           0.284445        0.7156     0.71556
    5          H           0.279568        0.7204     0.72043
    6          C          -0.356178        4.3562     1.04428     3.31190
    7          C          -0.530103        4.5301     1.02936     3.50074
    8          H           0.122169        0.8778     0.87783
    9          H           0.111839        0.8882     0.88816
   10          H           0.077650        0.9223     0.92235
   11          H           0.128257        0.8717     0.87174
   12          H           0.084167        0.9158     0.91583
   13          C          -0.401069        4.4011     1.04955     3.35152
   14          C          -0.380508        4.3805     1.04226     3.33824
   15          H           0.096730        0.9033     0.90327
   16          H           0.113935        0.8861     0.88607
   17          H           0.110923        0.8891     0.88908
   18          H           0.129330        0.8707     0.87067
   19          H           0.139173        0.8608     0.86083
   20          C          -0.355345        4.3553     1.04298     3.31236
   21          C          -0.604391        4.6044     1.01194     3.59246
   22          H           0.084718        0.9153     0.91528
   23          H           0.105912        0.8941     0.89409
   24          H           0.094232        0.9058     0.90577
   25          H           0.136473        0.8635     0.86353
   26          H           0.151347        0.8487     0.84865
   27          C          -0.367896        4.3679     1.04670     3.32120
   28          C          -0.485903        4.4859     1.03416     3.45174
   29          H           0.109286        0.8907     0.89071
   30          H           0.116916        0.8831     0.88308
   31          H           0.082612        0.9174     0.91739
   32          H           0.099314        0.9007     0.90069
   33          H           0.118368        0.8816     0.88163
   34          C          -0.474393        4.4744     0.95009     3.52431
   35          C           0.261081        3.7389     1.08978     2.64913
   36          C           0.260968        3.7390     1.08975     2.64928
   37          C           0.261314        3.7387     1.08986     2.64882
   38          N          -0.436938        5.4369     1.83828     3.59866
   39          N          -0.435837        5.4358     1.83826     3.59758
   40          N          -0.436196        5.4362     1.83823     3.59796
 DIPOLE           X         Y         Z       TOTAL
 POINT-CHG.     3.378    -0.283    24.418    24.653
 HYBRID         0.044    -0.145     0.822     0.836
 SUM            3.422    -0.428    25.240    25.475


          ATOMIC ORBITAL ELECTRON POPULATIONS

     Atom    s        px        py        pz      x^2-y^2     xz        z^2       yz        xy
    1 Mn   0.99295   0.15209   0.15281   0.10138   0.97371   1.50054   1.14592   1.07297   0.96939
    2  N   1.47301   1.59581   1.23881   1.18269
    3  H   0.74388
    4  H   0.71556
    5  H   0.72043
    6  C   1.04428   1.14277   1.06264   1.10649
    7  C   1.02936   1.07896   1.19868   1.22310
    8  H   0.87783
    9  H   0.88816
   10  H   0.92235
   11  H   0.87174
   12  H   0.91583
   13  C   1.04955   1.10514   1.12140   1.12498
   14  C   1.04226   0.93942   1.11502   1.28381
   15  H   0.90327
   16  H   0.88607
   17  H   0.88908
   18  H   0.87067
   19  H   0.86083
   20  C   1.04298   1.10685   1.09646   1.10905
   21  C   1.01194   1.24496   1.16852   1.17897
   22  H   0.91528
   23  H   0.89409
   24  H   0.90577
   25  H   0.86353
   26  H   0.84865
   27  C   1.04670   1.08701   1.12086   1.11333
   28  C   1.03416   1.30791   1.13906   1.00477
   29  H   0.89071
   30  H   0.88308
   31  H   0.91739
   32  H   0.90069
   33  H   0.88163
   34  C   0.95009   0.94769   0.94325   1.63337
   35  C   1.08978   0.89261   0.88791   0.86862
   36  C   1.08975   0.88937   0.89119   0.86872
   37  C   1.08986   0.88852   0.89191   0.86840
   38  N   1.83828   1.14465   1.20823   1.24578
   39  N   1.83826   1.15715   1.19255   1.24788
   40  N   1.83823   1.22598   1.12559   1.24639


                    (SZ)    =    1.000000
                    (S**2)  =    2.018382


          ATOMIC ORBITAL SPIN POPULATIONS

    Atom   Total    s     px     py     pz   x^2-y^2  xz     z^2    yz     xy
         Atomic
    1 Mn  2.0819  0.024  0.001  0.004 -0.001  0.314  0.078  0.173  0.767  0.722
    2  N -0.0078 -0.001 -0.005 -0.001 -0.001
    3  H -0.0002 -0.000
    4  H  0.0004  0.000
    5  H  0.0029  0.003
    6  C  0.0079  0.001  0.000  0.005  0.001
    7  C -0.0251 -0.000 -0.001 -0.012 -0.012
    8  H -0.0002 -0.000
    9  H -0.0004 -0.000
   10  H  0.0004  0.000
   11  H  0.0068  0.007
   12  H  0.0050  0.005
   13  C  0.0039  0.001  0.002  0.000  0.001
   14  C -0.0824 -0.006 -0.003 -0.001 -0.072
   15  H -0.0001 -0.000
   16  H -0.0006 -0.001
   17  H -0.0025 -0.003
   18  H  0.0095  0.010
   19  H  0.0060  0.006
   20  C  0.0044  0.001  0.001  0.002  0.000
   21  C  0.0134 -0.000  0.009  0.008 -0.003
   22  H  0.0001  0.000
   23  H -0.0002 -0.000
   24  H  0.0010  0.001
   25  H  0.0040  0.004
   26  H  0.0020  0.002
   27  C  0.0055  0.001  0.002  0.001  0.002
   28  C -0.0429 -0.004 -0.030 -0.007 -0.002
   29  H -0.0003 -0.000
   30  H -0.0003 -0.000
   31  H -0.0012 -0.001
   32  H  0.0017  0.002
   33  H  0.0076  0.008
   34  C -0.0000  0.000  0.000 -0.000 -0.000
   35  C -0.0000 -0.000 -0.000 -0.000 -0.000
   36  C  0.0000  0.000  0.000  0.000 -0.000
   37  C -0.0000 -0.000 -0.000  0.000 -0.000
   38  N  0.0000 -0.000  0.000  0.000  0.000
   39  N -0.0000  0.000 -0.000  0.000 -0.000
   40  N  0.0000  0.000  0.000  0.000  0.000

 **********************
 *                    *
 * JOB ENDED NORMALLY *
 *                    *
 **********************



 TOTAL JOB TIME:             9.96 SECONDS

 == MOPAC DONE ==
