 *******************************************************************************
 ** Site#: 26130        For non-commercial use only     Version 16.299L 64BITS**
 *******************************************************************************
 ** Cite this program as: MOPAC2016, Version: 16.299L, James J. P. Stewart,   **
 ** Stewart Computational Chemistry, web: HTTP://OpenMOPAC.net. Days left: 350**
 *******************************************************************************
 **                                                                           **
 **                                MOPAC2016                                  **
 **                                                                           **
 *******************************************************************************

                              PM7 CALCULATION RESULTS


 *******************************************************************************
 *  CALCULATION DONE:                                Thu Nov 10 15:55:07 2016  *
 *  PM7        - The PM7 Hamiltonian to be used
 *  QUINTET    - SPIN STATE DEFINED AS A QUINTET
 *  UHF        - UNRESTRICTED HARTREE-FOCK CALCULATION
 *
 *
 *
 *                 CHARGE ON SYSTEM =    -2
 *
 *
 *
 *  XYZ        - CARTESIAN COORDINATE SYSTEM TO BE USED
 *  EF         - USE EF ROUTINE FOR MINIMUM SEARCH
 *  T=         - A TIME OF 172800.0 SECONDS REQUESTED
 *  DUMP=N     - RESTART FILE WRITTEN EVERY  7200.000 SECONDS
 *  HESSIAN    - WRITE OUT HESSIAN FROM GEOMERY OPTIMIZATION
 *******************************************************************************
 EF PM7 XYZ HESSIAN QUINTET UHF CHARGE=-2
 1003_M42_5

   ATOM   CHEMICAL          X               Y               Z
  NUMBER   SYMBOL      (ANGSTROMS)     (ANGSTROMS)     (ANGSTROMS)
 
     1      Mn          0.00000000  *   0.00000000  *   0.00000000  *
     2       N          0.00000000  *   0.00000000  *   2.19000000  *
     3       H         -0.86324700  *   0.45332100  *   2.56439300  *
     4       H          0.03900000  *  -0.97424100  *   2.56420300  *
     5       H          0.82424700  *   0.52091900  *   2.56416600  *
     6       C          0.00017700  *   3.52469200  *  -0.09021700  *
     7       C          0.00000000  *   2.01000100  *   0.00028000  *
     8       H         -0.90266300  *   3.86453300  *  -0.63999800  *
     9       H          0.90556200  *   3.86557900  *  -0.63406000  *
    10       H         -0.00342600  *   3.96478300  *   0.92863400  *
    11       H         -0.90696100  *   1.66131800  *   0.53645800  *
    12       H          0.90486200  *   1.66215900  *   0.54251700  *
    13       C          3.52469200  *   0.04425600  *   0.07861700  *
    14       C          2.01000100  *  -0.00013600  *  -0.00024400  *
    15       H          3.86453300  *  -0.47459700  *   0.99957800  *
    16       H          3.86557900  *   1.09994300  *   0.11045700  *
    17       H          3.96478300  *  -0.45694600  *  -0.80843900  *
    18       H          1.66131800  *  -1.05345100  *  -0.02462800  *
    19       H          1.66215900  *   0.52416900  *  -0.91561300  *
    20       C          0.08990000  *  -3.52469200  *   0.00755900  *
    21       C         -0.00027900  *  -2.01000100  *  -0.00002400  *
    22       H          0.56025400  *  -3.86453300  *   0.95420800  *
    23       H          0.70936300  *  -3.86557900  *  -0.84786800  *
    24       H         -0.92550900  *  -3.96478300  *  -0.07620200  *
    25       H         -0.61224000  *  -1.66131800  *   0.85762900  *
    26       H         -0.46294300  *  -1.66215900  *  -0.94804200  *
    27       C         -3.52469200  *  -0.08587400  *  -0.02765600  *
    28       C         -2.01000100  *   0.00026700  *   0.00008500  *
    29       H         -3.86453300  *  -0.88459300  *   0.66475100  *
    30       H         -3.86557900  *  -0.32800700  *  -1.05569300  *
    31       H         -3.96478300  *   0.88343900  *   0.28619900  *
    32       H         -1.66131800  *   0.23462000  *   1.02728700  *
    33       H         -1.66215900  *   0.79241600  *  -0.69654600  *
    34       C          0.00000000  *   0.00000000  *  -2.01000000  *
    35       C         -1.38106800  *  -0.06602600  *  -2.49309000  *
    36       C          0.74773200  *  -1.16305200  *  -2.49326900  *
    37       C          0.63333700  *   1.22907800  *  -2.49339000  *
    38       N          1.13400600  *   2.20068300  *  -2.87434500  *
    39       N          1.33879000  *  -2.08240600  *  -2.87407400  *
    40       N         -2.47288700  *  -0.11827100  *  -2.87387300  *
 


          CARTESIAN COORDINATES 

    NO.       ATOM         X         Y         Z

     1        Mn        0.0000    0.0000    0.0000
     2         N        0.0000    0.0000    2.1900
     3         H       -0.8632    0.4533    2.5644
     4         H        0.0390   -0.9742    2.5642
     5         H        0.8242    0.5209    2.5642
     6         C        0.0002    3.5247   -0.0902
     7         C        0.0000    2.0100    0.0003
     8         H       -0.9027    3.8645   -0.6400
     9         H        0.9056    3.8656   -0.6341
    10         H       -0.0034    3.9648    0.9286
    11         H       -0.9070    1.6613    0.5365
    12         H        0.9049    1.6622    0.5425
    13         C        3.5247    0.0443    0.0786
    14         C        2.0100   -0.0001   -0.0002
    15         H        3.8645   -0.4746    0.9996
    16         H        3.8656    1.0999    0.1105
    17         H        3.9648   -0.4569   -0.8084
    18         H        1.6613   -1.0535   -0.0246
    19         H        1.6622    0.5242   -0.9156
    20         C        0.0899   -3.5247    0.0076
    21         C       -0.0003   -2.0100   -0.0000
    22         H        0.5603   -3.8645    0.9542
    23         H        0.7094   -3.8656   -0.8479
    24         H       -0.9255   -3.9648   -0.0762
    25         H       -0.6122   -1.6613    0.8576
    26         H       -0.4629   -1.6622   -0.9480
    27         C       -3.5247   -0.0859   -0.0277
    28         C       -2.0100    0.0003    0.0001
    29         H       -3.8645   -0.8846    0.6648
    30         H       -3.8656   -0.3280   -1.0557
    31         H       -3.9648    0.8834    0.2862
    32         H       -1.6613    0.2346    1.0273
    33         H       -1.6622    0.7924   -0.6965
    34         C        0.0000    0.0000   -2.0100
    35         C       -1.3811   -0.0660   -2.4931
    36         C        0.7477   -1.1631   -2.4933
    37         C        0.6333    1.2291   -2.4934
    38         N        1.1340    2.2007   -2.8743
    39         N        1.3388   -2.0824   -2.8741
    40         N       -2.4729   -0.1183   -2.8739

 General Reference for PM7:
 "Optimization of Parameters for Semiempirical Methods VI: More Modifications to the 
 NDDO Approximations and Re-optimization of Parameters", J. J. P. Stewart, J. Mol. Mod., 1:32, 19 (2013)
 http://www.springerlink.com/openurl.asp?genre=article&id=doi:10.1007/s00894-012-1667-x

           Empirical Formula: C12 H23 N4 Mn  =    40 atoms



      MOLECULAR POINT GROUP   :   C1  


 QUINTET STATE CALCULATION


          UHF CALCULATION, NO. OF ALPHA ELECTRONS =   52
                           NO. OF BETA  ELECTRONS =   48

          Geometry optimization using EF

          DIAGONAL MATRIX USED AS START HESSIAN

 CYCLE:     1 TIME:   0.098 TIME LEFT:  2.00D  GRAD.:   359.346 HEAT:  377.2406
 CYCLE:     2 TIME:   0.031 TIME LEFT:  2.00D  GRAD.:   250.967 HEAT:  332.4571
 CYCLE:     3 TIME:   0.055 TIME LEFT:  2.00D  GRAD.:   388.627 HEAT:  321.4829
 CYCLE:     4 TIME:   0.027 TIME LEFT:  2.00D  GRAD.:   131.511 HEAT:  298.9003
 CYCLE:     5 TIME:   0.031 TIME LEFT:  2.00D  GRAD.:   135.297 HEAT:  281.4148
 CYCLE:     6 TIME:   0.027 TIME LEFT:  2.00D  GRAD.:   321.002 HEAT:  268.6771
 CYCLE:     7 TIME:   0.062 TIME LEFT:  2.00D  GRAD.:   427.405 HEAT:  267.9391
 CYCLE:     8 TIME:   0.027 TIME LEFT:  2.00D  GRAD.:   111.899 HEAT:  243.6822
 CYCLE:     9 TIME:   0.109 TIME LEFT:  2.00D  GRAD.:   129.129 HEAT:  241.8039
 CYCLE:    10 TIME:   0.027 TIME LEFT:  2.00D  GRAD.:   101.616 HEAT:  239.3050
 CYCLE:    11 TIME:   0.027 TIME LEFT:  2.00D  GRAD.:    60.589 HEAT:  235.3406
 CYCLE:    12 TIME:   0.027 TIME LEFT:  2.00D  GRAD.:    96.817 HEAT:  229.0029
 CYCLE:    13 TIME:   0.031 TIME LEFT:  2.00D  GRAD.:    99.392 HEAT:  219.9066
 CYCLE:    14 TIME:   0.035 TIME LEFT:  2.00D  GRAD.:    59.819 HEAT:  203.1570
 CYCLE:    15 TIME:   0.027 TIME LEFT:  2.00D  GRAD.:   157.697 HEAT:  190.1348
 CYCLE:    16 TIME:   0.031 TIME LEFT:  2.00D  GRAD.:    81.387 HEAT:  172.6639
 CYCLE:    17 TIME:   0.027 TIME LEFT:  2.00D  GRAD.:   192.422 HEAT:  167.5026
 CYCLE:    18 TIME:   0.031 TIME LEFT:  2.00D  GRAD.:   184.690 HEAT:  154.7358
 CYCLE:    19 TIME:   0.082 TIME LEFT:  2.00D  GRAD.:    94.688 HEAT:  147.9790
 CYCLE:    20 TIME:   0.055 TIME LEFT:  2.00D  GRAD.:    85.368 HEAT:  146.1574
 CYCLE:    21 TIME:   0.027 TIME LEFT:  2.00D  GRAD.:    58.506 HEAT:  143.7914
 CYCLE:    22 TIME:   0.031 TIME LEFT:  2.00D  GRAD.:    73.336 HEAT:  141.7191
 CYCLE:    23 TIME:   0.027 TIME LEFT:  2.00D  GRAD.:    38.214 HEAT:  138.0065
 CYCLE:    24 TIME:   0.031 TIME LEFT:  2.00D  GRAD.:    92.608 HEAT:  134.2055
 CYCLE:    25 TIME:   0.031 TIME LEFT:  2.00D  GRAD.:    81.784 HEAT:  127.8401
 CYCLE:    26 TIME:   0.086 TIME LEFT:  2.00D  GRAD.:    98.885 HEAT:  127.0642
 CYCLE:    27 TIME:   0.043 TIME LEFT:  2.00D  GRAD.:    49.950 HEAT:  125.1055
 CYCLE:    28 TIME:   0.047 TIME LEFT:  2.00D  GRAD.:    86.077 HEAT:  125.0907
 CYCLE:    29 TIME:   0.035 TIME LEFT:  2.00D  GRAD.:    38.112 HEAT:  122.6894
 CYCLE:    30 TIME:   0.113 TIME LEFT:  2.00D  GRAD.:    45.291 HEAT:  122.6042
 CYCLE:    31 TIME:   0.039 TIME LEFT:  2.00D  GRAD.:    24.486 HEAT:  121.8428
 CYCLE:    32 TIME:   0.066 TIME LEFT:  2.00D  GRAD.:    26.043 HEAT:  121.6958
 CYCLE:    33 TIME:   0.035 TIME LEFT:  2.00D  GRAD.:    20.660 HEAT:  121.3528
 CYCLE:    34 TIME:   0.035 TIME LEFT:  2.00D  GRAD.:    22.611 HEAT:  121.0523
 CYCLE:    35 TIME:   0.035 TIME LEFT:  2.00D  GRAD.:    29.955 HEAT:  120.6915
 CYCLE:    36 TIME:   0.035 TIME LEFT:  2.00D  GRAD.:    24.348 HEAT:  119.9885
 CYCLE:    37 TIME:   0.039 TIME LEFT:  2.00D  GRAD.:    43.694 HEAT:  119.5673
 CYCLE:    38 TIME:   0.039 TIME LEFT:  2.00D  GRAD.:    30.771 HEAT:  118.4865
 CYCLE:    39 TIME:   0.039 TIME LEFT:  2.00D  GRAD.:    61.791 HEAT:  118.4743
 CYCLE:    40 TIME:   0.039 TIME LEFT:  2.00D  GRAD.:    42.587 HEAT:  117.1294
 CYCLE:    41 TIME:   0.137 TIME LEFT:  2.00D  GRAD.:    18.498 HEAT:  116.5978
 CYCLE:    42 TIME:   0.035 TIME LEFT:  2.00D  GRAD.:    30.978 HEAT:  116.5902
 CYCLE:    43 TIME:   0.035 TIME LEFT:  2.00D  GRAD.:    12.784 HEAT:  116.1159
 CYCLE:    44 TIME:   0.035 TIME LEFT:  2.00D  GRAD.:    22.761 HEAT:  115.8672
 CYCLE:    45 TIME:   0.035 TIME LEFT:  2.00D  GRAD.:    18.006 HEAT:  115.2704
 CYCLE:    46 TIME:   0.035 TIME LEFT:  2.00D  GRAD.:    29.656 HEAT:  114.5944
 CYCLE:    47 TIME:   0.039 TIME LEFT:  2.00D  GRAD.:    40.362 HEAT:  113.6328
 CYCLE:    48 TIME:   0.039 TIME LEFT:  2.00D  GRAD.:    45.553 HEAT:  113.1679
 CYCLE:    49 TIME:   0.039 TIME LEFT:  2.00D  GRAD.:    51.199 HEAT:  112.6719
 CYCLE:    50 TIME:   0.035 TIME LEFT:  2.00D  GRAD.:    43.645 HEAT:  112.1473
 CYCLE:    51 TIME:   0.145 TIME LEFT:  2.00D  GRAD.:    24.791 HEAT:  111.4661
 CYCLE:    52 TIME:   0.035 TIME LEFT:  2.00D  GRAD.:    31.131 HEAT:  111.4286
 CYCLE:    53 TIME:   0.027 TIME LEFT:  2.00D  GRAD.:    19.836 HEAT:  110.9867
 CYCLE:    54 TIME:   0.070 TIME LEFT:  2.00D  GRAD.:    28.757 HEAT:  110.9618
 CYCLE:    55 TIME:   0.035 TIME LEFT:  2.00D  GRAD.:    20.642 HEAT:  110.6810
 CYCLE:    56 TIME:   0.035 TIME LEFT:  2.00D  GRAD.:    31.457 HEAT:  110.5726
 CYCLE:    57 TIME:   0.035 TIME LEFT:  2.00D  GRAD.:    18.227 HEAT:  110.2375
 CYCLE:    58 TIME:   0.070 TIME LEFT:  2.00D  GRAD.:    28.470 HEAT:  110.1868
 CYCLE:    59 TIME:   0.035 TIME LEFT:  2.00D  GRAD.:    11.771 HEAT:  109.9081
 CYCLE:    60 TIME:   0.039 TIME LEFT:  2.00D  GRAD.:    18.790 HEAT:  109.7514
 CYCLE:    61 TIME:   0.035 TIME LEFT:  2.00D  GRAD.:    18.199 HEAT:  109.5214
 CYCLE:    62 TIME:   0.035 TIME LEFT:  2.00D  GRAD.:    21.506 HEAT:  109.1998
 CYCLE:    63 TIME:   0.035 TIME LEFT:  2.00D  GRAD.:    27.031 HEAT:  108.9179
 CYCLE:    64 TIME:   0.035 TIME LEFT:  2.00D  GRAD.:    16.392 HEAT:  108.2636
 CYCLE:    65 TIME:   0.039 TIME LEFT:  2.00D  GRAD.:    39.954 HEAT:  108.1247
 CYCLE:    66 TIME:   0.035 TIME LEFT:  2.00D  GRAD.:    18.736 HEAT:  106.8818
 CYCLE:    67 TIME:   0.039 TIME LEFT:  2.00D  GRAD.:    44.238 HEAT:  106.7946
 CYCLE:    68 TIME:   0.039 TIME LEFT:  2.00D  GRAD.:    15.776 HEAT:  105.2710
 CYCLE:    69 TIME:   0.039 TIME LEFT:  2.00D  GRAD.:    38.173 HEAT:  104.9917
 CYCLE:    70 TIME:   0.035 TIME LEFT:  2.00D  GRAD.:    30.142 HEAT:  103.9533
 CYCLE:    71 TIME:   0.039 TIME LEFT:  2.00D  GRAD.:    42.942 HEAT:  103.9057
 CYCLE:    72 TIME:   0.039 TIME LEFT:  2.00D  GRAD.:    14.733 HEAT:  102.4786
 CYCLE:    73 TIME:   0.164 TIME LEFT:  2.00D  GRAD.:    18.030 HEAT:  102.4299
 CYCLE:    74 TIME:   0.035 TIME LEFT:  2.00D  GRAD.:     9.323 HEAT:  102.2330
 CYCLE:    75 TIME:   0.031 TIME LEFT:  2.00D  GRAD.:    10.752 HEAT:  102.0947
 CYCLE:    76 TIME:   0.035 TIME LEFT:  2.00D  GRAD.:     7.891 HEAT:  101.8731
 CYCLE:    77 TIME:   0.035 TIME LEFT:  2.00D  GRAD.:     8.060 HEAT:  101.5877
 CYCLE:    78 TIME:   0.039 TIME LEFT:  2.00D  GRAD.:     7.470 HEAT:  101.1075
 CYCLE:    79 TIME:   0.035 TIME LEFT:  2.00D  GRAD.:     8.865 HEAT:  100.5169
 CYCLE:    80 TIME:   0.039 TIME LEFT:  2.00D  GRAD.:     7.571 HEAT:  99.53442
 CYCLE:    81 TIME:   0.035 TIME LEFT:  2.00D  GRAD.:     6.956 HEAT:  98.59289
 CYCLE:    82 TIME:   0.035 TIME LEFT:  2.00D  GRAD.:     8.646 HEAT:  97.59894
 CYCLE:    83 TIME:   0.039 TIME LEFT:  2.00D  GRAD.:     8.993 HEAT:  96.59537
 CYCLE:    84 TIME:   0.035 TIME LEFT:  2.00D  GRAD.:     9.681 HEAT:  95.68058
 CYCLE:    85 TIME:   0.035 TIME LEFT:  2.00D  GRAD.:     5.763 HEAT:  94.81097
 CYCLE:    86 TIME:   0.035 TIME LEFT:  2.00D  GRAD.:     5.214 HEAT:  93.97878
 CYCLE:    87 TIME:   0.031 TIME LEFT:  2.00D  GRAD.:     4.812 HEAT:  93.16440
 CYCLE:    88 TIME:   0.035 TIME LEFT:  2.00D  GRAD.:     4.903 HEAT:  92.37608
 CYCLE:    89 TIME:   0.035 TIME LEFT:  2.00D  GRAD.:     4.376 HEAT:  91.63490
 CYCLE:    90 TIME:   0.035 TIME LEFT:  2.00D  GRAD.:     3.749 HEAT:  90.93488
 CYCLE:    91 TIME:   0.035 TIME LEFT:  2.00D  GRAD.:     3.056 HEAT:  90.27170
 CYCLE:    92 TIME:   0.031 TIME LEFT:  2.00D  GRAD.:     2.929 HEAT:  89.62821
 CYCLE:    93 TIME:   0.035 TIME LEFT:  2.00D  GRAD.:     2.319 HEAT:  89.00456
 CYCLE:    94 TIME:   0.035 TIME LEFT:  2.00D  GRAD.:     2.699 HEAT:  88.40277
 CYCLE:    95 TIME:   0.035 TIME LEFT:  2.00D  GRAD.:     2.444 HEAT:  87.82185
 CYCLE:    96 TIME:   0.039 TIME LEFT:  2.00D  GRAD.:     2.466 HEAT:  87.25528
 CYCLE:    97 TIME:   0.035 TIME LEFT:  2.00D  GRAD.:     2.766 HEAT:  86.69751
 CYCLE:    98 TIME:   0.035 TIME LEFT:  2.00D  GRAD.:     2.567 HEAT:  86.14238
 CYCLE:    99 TIME:   0.035 TIME LEFT:  2.00D  GRAD.:     2.301 HEAT:  85.59355
 CYCLE:   100 TIME:   0.035 TIME LEFT:  2.00D  GRAD.:     2.699 HEAT:  85.05864
 CYCLE:   101 TIME:   0.039 TIME LEFT:  2.00D  GRAD.:     2.557 HEAT:  84.54207
 CYCLE:   102 TIME:   0.035 TIME LEFT:  2.00D  GRAD.:     2.542 HEAT:  84.03328
 CYCLE:   103 TIME:   0.035 TIME LEFT:  2.00D  GRAD.:     2.281 HEAT:  83.53273
 CYCLE:   104 TIME:   0.035 TIME LEFT:  2.00D  GRAD.:     2.228 HEAT:  83.05735
 CYCLE:   105 TIME:   0.035 TIME LEFT:  2.00D  GRAD.:     2.468 HEAT:  82.61725
 CYCLE:   106 TIME:   0.035 TIME LEFT:  2.00D  GRAD.:     2.412 HEAT:  82.19503
 CYCLE:   107 TIME:   0.035 TIME LEFT:  2.00D  GRAD.:     2.011 HEAT:  81.78187
 CYCLE:   108 TIME:   0.035 TIME LEFT:  2.00D  GRAD.:     1.897 HEAT:  81.37507
 CYCLE:   109 TIME:   0.031 TIME LEFT:  2.00D  GRAD.:     1.947 HEAT:  80.97817
 CYCLE:   110 TIME:   0.039 TIME LEFT:  2.00D  GRAD.:     1.979 HEAT:  80.59026
 CYCLE:   111 TIME:   0.035 TIME LEFT:  2.00D  GRAD.:     2.116 HEAT:  80.20965
 CYCLE:   112 TIME:   0.035 TIME LEFT:  2.00D  GRAD.:     2.061 HEAT:  79.83353
 CYCLE:   113 TIME:   0.035 TIME LEFT:  2.00D  GRAD.:     1.982 HEAT:  79.46142
 CYCLE:   114 TIME:   0.035 TIME LEFT:  2.00D  GRAD.:     1.655 HEAT:  79.09290
 CYCLE:   115 TIME:   0.039 TIME LEFT:  2.00D  GRAD.:     2.243 HEAT:  78.73565
 CYCLE:   116 TIME:   0.035 TIME LEFT:  2.00D  GRAD.:     2.410 HEAT:  78.39385
 CYCLE:   117 TIME:   0.035 TIME LEFT:  2.00D  GRAD.:     1.945 HEAT:  78.06269
 CYCLE:   118 TIME:   0.035 TIME LEFT:  2.00D  GRAD.:     1.497 HEAT:  77.74372
 CYCLE:   119 TIME:   0.035 TIME LEFT:  2.00D  GRAD.:     1.285 HEAT:  77.43671
 CYCLE:   120 TIME:   0.035 TIME LEFT:  2.00D  GRAD.:     1.535 HEAT:  77.14025
 CYCLE:   121 TIME:   0.035 TIME LEFT:  2.00D  GRAD.:     1.385 HEAT:  76.85155
 CYCLE:   122 TIME:   0.035 TIME LEFT:  2.00D  GRAD.:     1.518 HEAT:  76.57139
 CYCLE:   123 TIME:   0.035 TIME LEFT:  2.00D  GRAD.:     1.496 HEAT:  76.29665
 CYCLE:   124 TIME:   0.031 TIME LEFT:  2.00D  GRAD.:     1.136 HEAT:  76.03003
 CYCLE:   125 TIME:   0.035 TIME LEFT:  2.00D  GRAD.:     0.885 HEAT:  75.77095

     GRADIENT =  0.88468  IS LESS THAN CUTOFF =  1.00000



 -------------------------------------------------------------------------------
 EF PM7 XYZ HESSIAN QUINTET UHF CHARGE=-2
 1003_M42_5



     GEOMETRY OPTIMISED USING EIGENVECTOR FOLLOWING (EF).     
     SCF FIELD WAS ACHIEVED                                   


                              PM7 CALCULATION
                                                       MOPAC2016 (Version: 16.299L)
                                                       Thu Nov 10 15:55:13 2016
                                                       No. of days remaining = 350




          FINAL HEAT OF FORMATION =         75.77089 KCAL/MOL =     317.02541 KJ/MOL


          TOTAL ENERGY            =      -2758.00788 EV
          ELECTRONIC ENERGY       =     -15983.88628 EV  POINT GROUP:     C1  
          CORE-CORE REPULSION     =      13225.87841 EV
          COSMO AREA              =        354.92 SQUARE ANGSTROMS
          COSMO VOLUME            =        367.26 CUBIC ANGSTROMS

          GRADIENT NORM           =          0.88468
          IONIZATION POTENTIAL    =          1.994907 EV
          ALPHA SOMO LUMO (EV)    =         -1.995  5.837
          BETA  SOMO LUMO (EV)    =         -2.839  5.837
          NO. OF ALPHA ELECTRONS  =         52
          NO. OF BETA  ELECTRONS  =         48
          MOLECULAR WEIGHT        =        278.2785

          MOLECULAR DIMENSIONS (Angstroms)

            Atom       Atom       Distance
            H     3    N    38    18.81653
            H    10    N    39     8.27435
            H    17    H    31     7.96073


          SCF CALCULATIONS        =        151
 
          WALL-CLOCK TIME         =          5.215 SECONDS
          COMPUTATION TIME        =         20.397 SECONDS




   ATOM   CHEMICAL          X               Y               Z
  NUMBER   SYMBOL      (ANGSTROMS)     (ANGSTROMS)     (ANGSTROMS)
 
     1      Mn         -0.29491832  *   0.22988889  *   4.06341272  *
     2       N          0.30202727  *  -0.55256319  *   5.98369193  *
     3       H          0.11353336  *   0.07762374  *   6.75065330  *
     4       H         -0.17885401  *  -1.43547953  *   6.10934241  *
     5       H          1.29974803  *  -0.69550917  *   5.86715908  *
     6       C          0.20482367  *   3.26485069  *   3.61015213  *
     7       C          0.17575683  *   2.17010365  *   4.66905012  *
     8       H         -0.77983111  *   3.43191152  *   3.15919565  *
     9       H          0.90868107  *   3.04241113  *   2.79906111  *
    10       H          0.52099059  *   4.21424983  *   4.06185161  *
    11       H         -0.56677155  *   2.37546488  *   5.44203295  *
    12       H          1.15595897  *   2.00030058  *   5.11758959  *
    13       C          2.83108854  *   0.71835738  *   3.62405389  *
    14       C          1.55454825  *   0.04334133  *   3.14616132  *
    15       H          3.12878661  *   0.39508610  *   4.62534188  *
    16       H          2.74424271  *   1.81113697  *   3.63636853  *
    17       H          3.65589946  *   0.46910636  *   2.94213543  *
    18       H          1.70489506  *  -1.02936340  *   3.04578338  *
    19       H          1.11463043  *   0.50353283  *   2.25238148  *
    20       C          0.10612647  *  -2.86775462  *   3.37114464  *
    21       C         -0.84561852  *  -1.68487804  *   3.48751166  *
    22       H          0.68142363  *  -3.04662761  *   4.28346121  *
    23       H          0.81878994  *  -2.73927626  *   2.54706211  *
    24       H         -0.46621605  *  -3.78109303  *   3.15988599  *
    25       H         -1.63926317  *  -1.89423820  *   4.20536426  *
    26       H         -1.21909193  *  -1.33616940  *   2.52021880  *
    27       C         -3.46936495  *  -0.11826838  *   3.84338310  *
    28       C         -2.29691611  *   0.75288343  *   4.27313319  *
    29       H         -3.56569288  *  -1.01760566  *   4.46013857  *
    30       H         -3.39076890  *  -0.43951316  *   2.79872079  *
    31       H         -4.40520993  *   0.44781074  *   3.94058571  *
    32       H         -2.30983737  *   0.94885137  *   5.34484803  *
    33       H         -2.22570705  *   1.65765892  *   3.66329248  *
    34       C          0.38268846  *  -0.45052955  * -11.89842697  *
    35       C         -1.00809294  *  -0.51961920  * -11.89880546  *
    36       C          1.13644797  *  -1.62116658  * -11.89786639  *
    37       C          1.01753514  *   0.78868780  * -11.91081862  *
    38       N          1.54754548  *   1.82576494  * -11.92953752  *
    39       N          1.76533918  *  -2.60168477  * -11.90484531  *
    40       N         -2.17137892  *  -0.57795815  * -11.90739864  *

                             CARTESIAN COORDINATES

   1   Mn       -0.294918321     0.229888892     4.063412722
   2    N        0.302027271    -0.552563189     5.983691931
   3    H        0.113533364     0.077623740     6.750653297
   4    H       -0.178854012    -1.435479531     6.109342408
   5    H        1.299748033    -0.695509174     5.867159081
   6    C        0.204823672     3.264850686     3.610152131
   7    C        0.175756829     2.170103651     4.669050115
   8    H       -0.779831115     3.431911516     3.159195649
   9    H        0.908681074     3.042411128     2.799061113
  10    H        0.520990590     4.214249828     4.061851613
  11    H       -0.566771552     2.375464885     5.442032951
  12    H        1.155958968     2.000300585     5.117589585
  13    C        2.831088544     0.718357383     3.624053890
  14    C        1.554548253     0.043341331     3.146161319
  15    H        3.128786606     0.395086096     4.625341878
  16    H        2.744242710     1.811136971     3.636368530
  17    H        3.655899459     0.469106363     2.942135427
  18    H        1.704895057    -1.029363400     3.045783377
  19    H        1.114630432     0.503532825     2.252381484
  20    C        0.106126466    -2.867754617     3.371144640
  21    C       -0.845618519    -1.684878042     3.487511659
  22    H        0.681423630    -3.046627614     4.283461205
  23    H        0.818789935    -2.739276263     2.547062114
  24    H       -0.466216045    -3.781093026     3.159885989
  25    H       -1.639263167    -1.894238198     4.205364258
  26    H       -1.219091933    -1.336169399     2.520218805
  27    C       -3.469364945    -0.118268384     3.843383100
  28    C       -2.296916109     0.752883434     4.273133189
  29    H       -3.565692880    -1.017605663     4.460138566
  30    H       -3.390768902    -0.439513157     2.798720793
  31    H       -4.405209933     0.447810744     3.940585707
  32    H       -2.309837374     0.948851371     5.344848028
  33    H       -2.225707054     1.657658918     3.663292484
  34    C        0.382688456    -0.450529547   -11.898426967
  35    C       -1.008092938    -0.519619201   -11.898805463
  36    C        1.136447969    -1.621166578   -11.897866386
  37    C        1.017535140     0.788687799   -11.910818618
  38    N        1.547545477     1.825764942   -11.929537524
  39    N        1.765339180    -2.601684772   -11.904845307
  40    N       -2.171378916    -0.577958152   -11.907398641


           Empirical Formula: C12 H23 N4 Mn  =    40 atoms

    Hessian matrix from geometry optimization
  796.2167
   11.7150  750.3711
  -65.4196  119.9705  319.0144
 -197.6974  -19.2368   32.8943  936.1692
   -4.4522 -161.7233  -26.2721   62.1636  887.5583
   41.8003  -34.0451  -83.6258 -184.4060  218.9110  508.1772
   25.6078   -2.2475   -8.0410 -248.4201   82.3979  168.0688  409.0337
  -33.5503   10.2447    6.4249   81.1280 -201.2427 -151.4126 -106.7627  298.0224
  -24.9306    7.6821    2.9479  201.3280 -187.5467 -269.6848 -222.6220  200.3487  414.7611
    1.2650    3.8704    0.9389 -152.5554  -67.2120   28.2077   13.7241    3.7290  -13.7902  253.5609
   14.1483   42.5492   30.3682  -80.8340 -530.7758  -52.3641   24.0729   -5.3781    4.8249   77.8555
  735.7522
   -9.7394   -2.1396   -8.3390   39.0212   27.8784  -28.8498    2.6252  -42.7214    0.6064  -26.1929
  -25.1172  161.9385
   37.9295    8.8787  -30.6660 -505.2723  -86.2492   28.0121    4.1768   39.6639   -1.7310   31.0480
  -42.6584   -7.3224  725.7661
   24.3468    7.8655   -0.6785  -71.3823 -162.6351  -62.5994  -16.8335   11.5699   26.7816  -22.7055
    0.9482  -23.7213   98.7074  238.0006
  -11.3140   -0.6080    4.2125  -60.2497  -83.7789  -53.3919   19.0847   13.5871   10.9842   18.2219
   25.3861    3.9516   34.7147   65.3812  192.1067
 -123.4601    7.2023   -5.6024  -21.3470   10.2953    7.1617    0.6703    7.7949   -5.4961   -8.2230
   10.2388    7.1219  -15.0943   -7.7158    4.9300  824.7631
    7.4129 -130.4451   -5.2863    4.9373  -52.3155  -42.8553  -11.9389  -19.8925   30.3405  -13.8986
    9.9630   -0.0857   15.2149    7.3240    7.2190    0.1783  940.4387
   13.5942    2.2549  -54.3252   10.2499   -3.7035  -20.4656  -15.1851    2.5600   10.2760   10.2124
  -35.1149  -24.6988  -11.0670    9.2802  -11.5635   17.9094  -56.7609  969.9023
 -144.4204  -56.8794  -25.9086  -69.7369    2.3741    9.5464    2.6994    8.8926    2.3400    6.5068
    8.0248   -7.8513   21.2280   11.8641   11.2528 -208.6058   13.9826  -22.3754  819.0994
  -34.3943 -357.6520  -37.5941   27.2264  -47.7706   16.8137   -3.0051   37.5726    7.4050   18.8810
   71.8194  -24.0052  -18.7829   22.9463   16.0750    2.7494 -253.8684  164.6320  -25.0822  916.0255
   -6.6110  -35.8546  -91.6465   11.2319   24.1908  -37.6292  -12.2396   -8.6881   12.5763   -4.5752
  -24.0239   10.1463    5.4537   -4.4334   -1.2410   19.0635  154.6048 -297.9566  -25.7382 -136.8760
  823.6851
   37.4974    9.3620   39.1035   -1.1916   -1.2160   28.2923   11.5440  -22.1410  -15.2926  -22.7417
   29.8560   -0.4084    5.4635  -33.2384   10.7860 -332.8004   99.0798 -207.4461   20.5752    7.4254
  -26.5769  606.1155
  -22.8149   -3.7812    2.7490    8.9211   -1.6168  -17.0566   -7.4339   -1.4125    7.4390   11.3914
   -5.5838   -3.4129    6.5925    4.3481   -4.4387   49.2847  -53.0892    4.1452   48.0779  -12.8689
   29.5395  -42.6990  168.4402
   13.7439   15.4679   26.2751  -11.2679   -5.8037    6.1077   -7.1942  -20.4057    8.7912    0.4972
  -20.8808  -16.7154   33.7872    1.1253    0.6084 -122.0552   51.0258 -172.9447  -13.9592   -3.0478
  -34.8428  242.5064  -36.2527  279.9547
    8.7254  -14.0023  -12.3076   -6.1336    3.4266   -1.8481   21.7740   -6.1405  -29.4671    5.0543
   -7.6301    6.8673   -4.0479   -1.9371  -14.7262 -246.1312   15.4857  212.9971    8.2556  -12.6284
   31.6930  -96.2413   10.6107  -15.9078  449.2452
   -5.7579   16.3936    5.7123  -13.1468  -19.1663    7.8351   24.6569  -20.4235   -9.4555   -7.4347
   30.2942   -1.1917  -10.4024  -16.5810    8.0009   40.7696  -79.3813  -62.1726    3.2159   14.0328
   -3.1159   53.9835   11.8076   37.3139 -106.0838  234.5546
  -20.3941   16.3704   19.7400   -0.0774   -4.2058   13.9912    9.0423   -2.3000    2.8516  -19.2766
   25.9231  -10.1461  -26.0729  -21.4254   13.5780  151.0255  -59.1325 -254.8474   15.4402    2.9749
  -58.8778   80.9319   17.2634   75.4760 -276.9643   81.6288  448.0117
   15.8338   -3.9652   -7.6163  -12.7996   -1.7704   -3.3859   -2.5822    6.8602   -1.0092   20.4314
  -31.5612   -6.6094   24.8702   17.0872   -0.2572 -156.8488  -98.0285  -24.9579   -6.3253   -3.3574
    3.9525   17.2416  -45.7072  -24.1785   62.9310   24.8015   14.8797  201.7937
   12.9472   36.9388  -16.5730  -21.4534   13.3618   17.0633    7.9059   -1.1112  -26.6173   28.4094
  -15.0097   -8.7324    4.2180    9.0768  -30.2182 -111.3905 -410.9839 -126.4637  -26.2988  -68.3748
   62.1951 -100.1229   -5.2770  -51.5434   90.3077  -67.4601  -63.9953  142.7872  643.7550
   -3.0849   25.7865    0.1169   18.2414   -0.5440   -0.0306   -1.5362   -8.0139   -8.7855   17.1440
  -25.5319   -2.9385  -15.1929  -13.7451   -6.6883  -17.7609 -146.4010 -116.7760    4.6798    8.3418
   33.4523  -42.4211  -15.7226  -20.6286   34.4937  -50.9636  -23.1752   61.1293  199.2350  263.4838
   10.0660    3.4144   -3.9601   10.8744   -9.9049   -7.0670    5.2510   -9.8076  -14.0886   16.1431
   -5.6300  -10.8512   -3.3047   -3.6191   19.5705  -25.6952    5.2429   19.6992 -232.3156   54.6112
  153.5779   58.5654  -12.8901   18.9911    1.0038   -1.6581  -12.7238   14.1540   20.8675    3.0398
  377.3703
   11.0971  -16.4299  -16.7025    0.3608    2.0342    3.2618    3.8170    5.5729   -0.2023   -3.2824
   31.5130  -12.1222   -1.1815   -3.6721    6.2691  -14.6059   -4.8188   34.5388   70.3156  -48.5538
  -53.3551  -37.6080    3.0453   -0.2540   14.3124    8.3296   -8.3682   -7.1734    8.7083    2.1492
  -68.0003  185.3035
   -8.5930  -20.9860    6.4232  -25.9841   13.0435    9.5859    2.3342  -11.5455   -0.3210  -11.7300
   -9.7192  -22.9561   18.8745    1.5453    3.4295    2.4663   37.3246  -51.6429  163.7183  -60.2733
 -211.9406  -12.2193   19.0622   -2.2555    5.7686   -9.4308   11.5607   -5.4742  -19.7887    7.2255
 -223.2560   43.0715  368.2412
   23.3255  -29.9927   10.6734   13.4577   14.8412   22.3775   11.3397   -8.8608   -8.5487    0.8032
  -19.3424   -1.5647   25.6624  -11.6586   -4.2599   43.2462    9.1220  -21.4976 -373.5846   93.7206
 -142.7997   13.5471   -8.2185    4.8399   -1.4891   -7.0502   12.9628   23.5108  -12.8648   -1.4712
  -30.0320    7.0888    8.9198  513.9806
  -19.0923   -9.0530   -8.9800  -16.3022   -7.0719   -0.5812    3.9182   -1.9099    6.8668    5.3547
   11.7505   -4.6889   -9.9778    6.9445  -10.8792   26.0009  -26.0583   36.6160   28.3446   -8.6429
    5.0143  -17.7565    8.7987  -16.0720   -6.4672    4.7310    2.9502   -5.9569   10.5030    4.7350
   14.8692   11.5946   -9.4966  -64.3791  181.0463
    5.7257  -19.7689    3.3137   17.8758    8.0403    0.4771   -1.4589   -0.9838   11.3751  -13.7795
  -14.0996   -6.0357  -10.7704   -4.2663  -14.7485  -23.8387   18.9913  -30.0473 -103.4740   25.3396
 -121.4988   22.5362   -6.3929   16.3863   10.5856    0.7328   -2.6355   17.4292    5.5917   15.1811
   -2.3318    5.0926   35.7297  159.9902  -41.8237  254.1410
 -123.5136  -10.2908    5.4183  -59.7503    9.5829   37.2899   13.9755  -18.0501  -11.7587   -1.0909
    5.1211   -0.9866   25.6849   -0.3254   12.5857  -62.5504   26.0053  -18.5873  -33.4281    1.1324
    9.4276   15.1896  -14.6391    4.6687    3.2679    4.4240   -7.8614    6.8902   17.7323   -3.4733
   16.6732  -15.2521    8.5255  -10.8457    4.1801    3.0409  880.5770
    8.4702  -93.5335   -9.3079  -21.8324 -105.7214  -10.9100    0.8139   16.5754   14.9049   -1.2866
   39.4160  -10.1594    8.0245   -2.0881   11.0700   77.0115  -49.4919   33.4290   69.2052  -21.4491
   20.7251  -15.8452    1.4421  -16.5540    5.7093  -16.8373    3.3233    9.8476   22.8094   12.3249
   -8.4993    7.0619   19.3338  -31.6235   -7.4255   -9.5614   39.0453  795.3692
   22.3268   11.9820  -38.9257   36.4709   14.7196  -25.0149  -20.0798   11.0570    4.8615   -3.8564
    1.7811    4.4642   -8.2089  -10.1432  -15.4712   33.0317  -14.8850  -35.3843   25.3251  -16.5767
  -37.3653  -16.3174   19.7028  -21.9346  -26.9558   -0.1497    7.9571  -14.1677    5.9436   -2.4421
  -14.6510    4.4608    1.9754   -9.9829    3.4348  -11.4609   54.1875   21.2837  849.3470
 -371.6901   56.7091   85.0154  -24.2148   12.7913   -7.7506   27.2330   -7.2128  -25.0980   22.4215
   10.3963    1.6442   51.3106   -6.6512    6.1757    4.5562  -48.9658   -0.5587   14.0692   34.9047
    5.6289    4.0457    9.2219    9.1897   19.0097    8.6786   -1.8581    2.7271   -9.8537   -9.4909
   24.4559   -1.5303  -38.8939   26.7568   11.9449  -12.2296 -332.2565  -81.7237 -121.1516  997.7148
   50.1980 -132.4274  -27.5285  -29.2755  -83.1138   -0.9017   -2.5563   17.1891    8.2729   12.1909
   33.1047   -2.4430   13.7415    1.0156   12.2287   66.1988  -21.0681   18.3439   33.1815  -11.1002
   16.8458  -35.4258   13.5630  -14.2863    4.2564   -8.6111    4.5233   -9.5245    1.4861    5.8431
   -3.5171   -5.5194    0.9456  -18.7802   -0.5683   -1.1811  -69.9485 -231.5574  -19.0153  -35.5698
  850.9233
  102.6367  -30.9079 -110.0000   15.6154    0.5534  -28.1755  -13.4873    8.0298   -1.4524   -9.0358
   10.6179   10.5288  -17.2929   -1.7677   -1.3722  -27.4603   16.9597  -40.6673   -2.2451   -7.5027
  -39.1199    9.4690  -14.4819    3.8116  -11.6766   -7.7505   -1.2212   -4.9153    7.4920    7.8670
  -28.1963   21.9376    2.6011    2.0317   -7.2022   15.8841 -140.2148  -30.0707 -190.0872  118.2003
  -14.7894  709.1339
  -10.1435    1.3813    6.4229   -2.5299  -10.2527   -1.1242   10.5327   -2.3290    1.9149   10.9923
   -2.1225   -2.4669   13.4795   -1.6743    6.8034   -6.9128    3.6796   -4.1536   -2.9943  -16.5525
    9.7716   13.3109   -8.3867    9.9037    4.0357   -1.1133   -3.2688   -1.2044   -2.7100   -5.4607
    7.5183   -9.1474    2.9694   12.3569   -2.6775    4.5283  -67.2222   31.9581  -52.0068  -11.5791
    0.7851  -39.6845  188.1570
   -4.7512   -2.1323  -17.4159   -0.9720   -4.6756   -9.5345   -5.7676   11.6616    9.8785   -2.7129
   21.4359   12.9952   -4.5569    6.1522    3.7893   18.3468   -7.6775  -10.6290   -0.4380    3.9217
   -6.8405  -18.0706   17.9460   -6.0888   -8.8561   -1.7642    1.5017    2.5903    3.6480    3.8495
  -18.1725    3.0986   -5.6082   -7.3774    4.5796    2.5228   28.2463 -129.0491  137.9345   -3.8941
   21.7548  -12.0140  -26.2697  269.4224
    4.4390  -20.0040   32.5123   -5.0065  -22.8808   -3.4914  -11.7841   14.8110   10.5123   -9.0069
   -3.1827   -1.0823    0.6693    6.6091    4.4441   -0.0914    7.0878   11.3886    7.6923    6.7592
   16.2859    7.7759   -7.9350    2.3261    1.4114   -9.4666   -3.2857   21.1395   -0.7396   -2.9369
    6.4229   -1.7780    1.0096   -7.9467   -2.6317    0.2214  -51.5622  126.8244 -351.3504  -22.8235
  -27.8044   10.0869   72.2749 -157.7043  507.5842
   -5.2671    3.3938   -4.4008    7.1896    8.3581    0.7605   -0.2098    7.4155   -0.0320    5.6953
    1.8522   -2.0205    3.9687    4.4525   15.4020  -13.6125   -7.9179   -3.0601   -5.8693   -3.2826
   -5.7842    9.8795   -5.6080    6.6968    9.7865   -8.4128  -12.0298   13.8216    8.3010   -1.2151
    2.3885   -0.9755    2.1346   16.7356   -4.2593    6.9349  -57.6239    0.0246   -1.9220   -1.9855
  -28.4538  -23.6621  -12.3593    3.7441   12.3490  172.5387
  -10.4781   28.4182   11.5484   -3.9800   39.7419    1.7415   -7.2560    8.7852   -4.9492    8.1092
   -3.5233    9.3967   28.6260   18.4039   -2.7354  -12.0544   25.3493  -19.2817  -15.5305   16.5304
    4.7666  -15.7140   -0.9657   -8.3892  -21.2589    8.4861    8.3980   -0.4324    8.0154   -2.6213
  -13.3264    3.0961   -1.4904   -4.9362    9.1437    2.1213    7.5353 -407.2474  -42.1829  -21.3159
   -0.9198  -17.7042   11.8972   20.7563   15.9595   14.9953  596.7909
    4.5877    5.2889   -6.0394   12.3885    5.3005   -4.4880    1.9815    0.6993    0.3435   -2.4760
   -4.3617   -1.9057   -4.2450    1.4207   -3.4962  -14.0062   13.7279  -16.6011   -7.3701   -8.4454
    0.4679    3.1655   -9.5356    3.4345  -10.7730   11.5258    8.3810  -20.6128    1.5583    3.0489
   -4.8155   -1.5993    8.2111    4.2952    2.4004    2.0636   21.4877  -43.3244  -54.4590  -29.0159
  -10.9287    0.8399   12.7222   -4.6056   23.1624   11.7587   41.3797  195.2432
   37.5545  -16.8815  -18.4659    8.5498   -9.5779   -4.6093   -2.4497    4.6485    4.4898    3.5179
   -5.9026    4.6422   13.9854    3.6637   -4.7587   12.5316   -0.0597   -9.2074   14.5836   -3.1041
  -10.4900   12.9672   -2.8684    6.4833    9.6122  -18.4569  -12.8526    8.0587    2.5233   -1.5179
    7.9288   -1.1297   -3.8627   17.9814   -5.8441   11.5233 -239.1593   71.7659  163.0533  -69.2743
   -2.4422   -0.3974   19.7371  -18.1335   14.8590    6.1031    9.7594   -4.9806  427.5922
  -11.4654   -0.9492    3.6161   -8.5336  -11.1639    1.0248   11.2009   -2.8471    1.3787    6.3474
   11.5663    3.5997    2.2609    4.4843   -4.4229    2.7853    3.1966    0.0488   -1.8503    2.9880
    8.1585  -16.7521   -3.0019   -3.4036  -10.5085   14.1553   18.9592  -22.9951   -1.1001    3.1915
  -12.6522    0.6054    7.0300   -9.5487    6.7799    1.0403   75.8858  -93.0739  -63.9408   -3.8550
    9.6523   22.5066    1.3604    9.2395   -8.4493   17.2507   23.9680   -8.6285  -66.5812  199.6423
   -8.3752    5.5803    2.5227   -6.5392    7.0304    8.3415   -3.8851   -1.5906   11.1674  -15.5416
   13.0793    6.6182  -32.9153    3.5106    3.5659  -16.9846   -6.9392   -5.0275   -7.7483    6.2086
   -2.2397   -9.0499    3.4887    1.0932   -4.1508    6.9441    3.5000    3.4651    5.3155    1.5631
  -14.8656    7.5472   -0.7175   -4.8194    5.9016   -6.0391  152.7119  -58.7470 -193.5108   -6.7403
   17.7147   31.8293    8.1457   -8.0646    5.8684    9.0374  -12.0061    5.8959 -174.1099   44.5919
  315.1859
   -1.1921   14.4010   11.5532  -12.5299    0.1942    4.3381    3.4022   -5.7869   10.2295    0.5430
   -4.9950    6.5786   -0.5490    4.5965   -8.7002   -6.3355   -2.0687  -11.7432   -0.0560    3.0063
   -1.2153    4.2137   -6.9747   13.1800    2.4514    2.7264   -2.0454    0.1224   -4.5580   -9.1945
   -4.3384   -3.7763   -3.4525   10.8270   -4.6461    6.1583  -22.2428  -45.6498  -20.5022  -25.8701
   34.1675    5.3703    2.0348    0.7180    5.5454    4.0430   29.7070    4.4766   -5.1064    0.0735
   -3.3930  171.2388
   20.0077   25.1863   -6.2793    5.5410   37.6077   -1.0797   -7.4957   10.8516    5.7555    6.4317
    9.9439   10.1927   15.6144    9.1494    7.4701  -18.8527   12.2256    6.6003  -16.0702   19.8013
   -5.4210  -21.6578    0.9251   -7.5313   -6.6471    3.9243    9.4406    4.2095   23.2081    9.9542
  -10.1438    5.9951    9.9989    0.8288    5.2015    6.1307   -9.6680   -9.6938  -12.5912   -6.2568
 -404.3665  -66.4044   -0.0304   24.0432  -22.2323   17.9430   20.6267    3.8312  -18.8878   -0.0368
   10.7595   -4.1181  573.2144
    7.4846    1.9721   -1.0455   14.8414   -1.0277  -11.7861   -1.8460    2.1356   -6.0228    5.0642
   12.3929  -13.2222   -0.7772   -5.0335    7.5619   -8.8324   -6.0968   -0.5889   -0.7707   13.0942
  -10.0140   -1.6053   -0.8269  -13.5555   -5.8272   -0.6657    1.4389    3.9191   -4.5601   -8.0812
    3.9888    3.1147   14.8266   -4.2535   -4.9141   -3.0718  -13.5333   -7.7425   -9.0365    7.9412
  -78.1457  -55.2782   -2.7352   14.0215    4.5244   -7.9944   20.2592    2.7772   -0.2683   17.0168
   21.4152   25.2906   79.7354  180.5610
    3.4621    0.3938   11.0545    3.3562   -7.3561   -0.6986   -9.2240    9.7842    0.2217   -0.5598
    2.2811   -7.7125   -2.2671   -0.0267    3.2727   13.1952  -13.7882    0.5409   11.4387   15.1738
    2.5739   -0.4038   -5.1129    5.6859    7.4869   -3.0110    4.5012   -4.1698    2.4211   -4.0560
    5.4961  -13.8056    4.8952   13.3843    8.5985   -0.9327  -42.4813   -1.3387  -32.0789  -39.9298
   35.7935  -49.9547   10.8246   -5.4848   16.0066    8.6986  -15.1127    3.7694   -5.6125   -7.4517
    5.6048   10.8862    6.6241   10.4060  181.7662
  -21.5319   18.1181   -4.8650    1.0284    4.1205   -8.6879    0.9965   16.5749   -3.7574    5.0521
   17.3709   21.7745    6.5652    6.3794   10.1697  -11.6454   -3.6113  -10.0183   -0.4017    3.5670
  -14.0662   -2.5186    4.7334   -5.6590    1.4398    2.0017    3.6077    2.2596   24.1774    8.9751
  -18.9787   11.4409    8.8625   -7.2453   -1.5858   12.7313   -6.8785   17.8573  -22.2642   70.2294
 -176.0791  162.0872  -13.3161  -26.1972    2.4983   -0.1613   15.2845    0.2982   10.8309  -11.0775
  -13.5566    4.3742    4.0900   -9.0156  -51.7341  286.4203
   42.9629  -22.7285    5.7952    7.7952  -14.3477   18.2573   -5.4051   10.0191   22.7116   -5.2351
  -15.6657    1.0109   -2.6353   -0.9567    4.3516   22.5106   -7.9925    8.3940   -2.0512   -7.8431
   17.4740  -13.7593   14.2318   -3.9260  -10.3737   -1.5722   -1.9790    4.2250    7.1718   -3.7773
   -7.5220   -4.0537   12.0622   -8.7069  -11.0353   -2.8670  -21.6186  -13.9633   -5.5461 -139.1004
  179.2281 -304.5765    4.4241   -0.4686   18.1494   -2.6092  -18.4887    8.5796   -3.4335    5.6934
   24.1057    2.8032   -4.2345    9.6772  106.1582 -182.6739  425.9699
  -98.3534    5.3111   -3.4597 -115.3135    8.2917    4.2087   14.0750  -13.4568  -24.9747    3.0928
  -11.5733   19.9135   29.1927  -16.8132    4.3192   42.1841  -29.1692   -0.1700   -1.3347  -28.8717
   -1.2201  -12.0244   -7.0720   -8.0040    1.1685    1.4241   12.9909    4.2049   15.1478   19.2227
   10.7138  -10.3628    3.0374    8.7730  -14.2361   12.4187  -19.2397  -88.0960   23.2853   -3.1427
  -43.9664  -17.4149  -10.0910   -1.5448  -12.6154    1.0519   27.9715   12.9729    6.3287   -8.7699
    3.9948   -5.9595    5.7493   -4.2044    2.3603    3.0389    3.5468  831.7859
    1.9738 -111.6693   -6.0565  -20.5789  -53.7482   -1.7367  -12.2421   -1.6590    0.7500    9.1642
   26.8321   -8.1266    6.2809    8.0615    5.3191    8.9631  -45.5609   -0.0006   24.1810   24.6862
  -11.4971   -7.5378    4.8248    3.5464   -3.3725   21.6543   16.3804   13.9284    0.7049   -0.3746
  -11.7318    3.3921    6.2600   -5.4817   -3.2300  -25.1530  -15.8474  -52.6004   -1.4981   10.9657
  -53.1683   13.0184   -8.8051   -4.3265   -7.2225   -0.1894   18.2668    5.7747  -18.4138   -1.2719
   14.3330    1.6983   -9.8336   17.1652    7.3293   16.4091  -10.8958  -58.9947  850.7348
   14.5283  -24.9046  -67.6965  -16.4809  -19.4402  -30.2941   -6.8012   -2.3933    7.6154   -1.9389
    2.8053   -5.2764   14.3254   16.0812   -5.8387    5.4064   -3.5366  -25.0097    2.7645    4.9140
  -12.1265   -8.6122   -0.9874   -1.4386    4.2808   17.6162   -0.6517    9.1208    3.3168  -11.7264
   -9.9684    1.2701    2.8791    5.7694    0.0107   -5.4810   29.8000  -23.6029  -63.6176  -32.3162
   -8.3660  -29.7912    2.5433  -12.9946   -2.2705    3.1699   31.3218    4.9828  -25.4178    3.5839
    3.1113   -5.7287   18.3688   -0.7778   -2.1810  -10.3656    6.7648   -7.7585  -11.0673  848.2357
 -150.0486  -40.2014   -6.5104  -39.7113  -47.6883    3.1051   -5.3560   19.1068    3.9111    4.4898
   35.3717  -23.4614   32.4628   24.6972   14.5528   14.1623   29.4205  -18.3852   -3.5143   16.2789
   21.5537    7.2087   -3.0185    1.8204   -7.8218   -0.6991   -0.2768   -3.2052  -10.9613   -1.0281
   -3.6605    1.8250  -11.0414    5.0835   22.2187   -1.3358   -8.1505  -43.5738   29.2071   10.8015
  -19.2254   -6.8900  -13.0089   14.4851   -7.4800   -7.7367   28.1123   -1.6363    4.8659   -3.9430
   -8.8200   -5.5200   13.9157    1.2568   -5.9061    0.4226   -1.8214 -291.6888  139.4833   22.5678
  749.3618
  -78.2936 -375.7220  -82.8489   26.6995    6.1643  -27.6431   -6.9698   11.3288   41.7025   -5.7652
   28.6164   17.8301    1.7744    4.3754   12.8627   -9.7557  -10.2805  -15.7469   15.2112   42.8746
   21.2974  -18.2148   11.1469  -21.0964   12.4044   -6.4571  -10.1172   22.1386   82.2456    8.4761
   10.9929    9.6901   19.8503    9.2247    5.0351   13.8420   55.5376   26.3062   15.0940  -43.7603
   24.0727   -3.7081   16.4686   23.5644   -3.3878   10.2441    7.6094    5.4668   13.9882   10.7465
   -6.8547  -20.2427   49.3905    2.1424   -8.2442    2.5931    4.4631  163.5692 -274.3786    2.9631
 -135.0777  978.7466
  -31.5563  -70.7608  -94.9163   29.8907  -35.2207  -38.7403  -20.6253   28.9625    7.9458    9.2344
   16.9642   -8.1236   18.4243   18.1594  -12.4135   -7.8719   -0.8994  -25.5316   16.8776   50.0762
   -5.1711   -2.3493    9.5890   -3.3855   14.2859   11.6335   -7.9629   14.1069    1.0011  -16.9155
   -1.1095    5.2848   -1.4586  -11.7610    6.9590   -2.2232    9.7513    2.8357  -20.9623    0.1743
   18.1931  -14.0840    0.6120    1.0648   -7.8451    7.6603   -2.0388   -6.4781   -1.6483   -5.1127
   -4.2325   -4.6722    5.3503   -0.2955    1.7663   -9.6272   -0.7945    8.6398   13.8140 -155.1275
  -61.6584  -34.7838  801.0617
    4.9409    5.3626   13.8036   -8.2001   -0.1941    8.8948   -5.1348    8.3170   -7.5030    4.9431
   13.1677    0.0649   12.6663   15.0710    3.8180   -1.9018    4.5811    3.1704   -0.9911   -6.4133
    5.5753    2.5628    0.3268   -4.6789    5.5356   -2.4756   -1.1100   -8.4542   -7.4399    4.7328
   -0.6163   -9.9744   -2.1921   -4.7172   -2.3560   -0.9785    8.8377    7.6529   14.3017   20.8135
    2.1567   -1.1097    3.6262    5.7142   -6.3909   -3.7136    4.5594    4.5579    5.4474   10.4376
    0.7597    3.0211   -2.4783   -2.3041    0.6880    5.2578   -3.6178 -175.8869   15.2161 -180.4577
   -3.5715   21.4037    1.4160  331.9736
   -4.6398    1.8612   -6.4303  -11.6972  -14.5219   -1.5402   -8.2199    8.4515    3.7713   -1.3409
    6.6808   14.3536   -5.2318    4.8770    8.3530    6.1396   11.8658  -10.6938    2.6513  -12.4750
    8.2832    3.2700    5.9634   -0.2914    5.9039    8.9220   -0.6271    0.9396    8.5758    1.3295
    8.0772    0.3075   -2.7642   -0.0570   -4.9636  -12.5809    1.2682   -2.7843    1.1686    8.2861
    1.3050   -0.5970    1.0748    3.0355   -6.3559   -3.2898    9.0098    6.9192    2.3906   12.2024
   -5.5379   -1.3905   15.9910   -1.9748   11.9015    1.9158   -8.9082    3.8268  -68.2585   19.8397
   25.9404    0.7669   24.0667  -22.2431  175.8517
   10.9001   12.0728   26.4902   13.0134  -17.6873   -7.5020  -17.2873   20.6709   15.1557    2.9347
    7.8261    4.2909   10.6774   13.0580    1.7382   -6.2322    6.2665    4.5396    4.1038    9.0110
   -4.9364    0.9214   -1.1712  -13.9718    7.4476  -11.6189   -6.4237   -5.2146    2.5845   -2.1044
   12.8664    4.9920   -0.3899   -2.5309   -3.6796   -5.5358    1.3022    9.3627    6.9253   16.7803
    1.0433    6.7469    4.4957    5.1524   -7.7992   -3.9023  -10.1162   -4.5885    6.6338    3.5243
  -10.1470    1.8327   -4.7414   -0.1882   -0.3290   -2.4025   -7.6916 -155.1795   20.5405 -310.7126
    4.9593   21.2065   31.2592  194.4168  -29.9579  470.1815
    7.8274    2.5909  -16.1152    1.0619  -15.0459   -9.6657    0.3677    3.0684   -5.6017    0.1694
    4.6284  -11.4288   15.1949   11.0782   -2.7789   -1.2370   14.1430   -3.3830    0.2399   -9.7896
   13.3062   -7.8636   -0.0086   -2.6331    0.7555   17.0825   -3.3194  -11.2844  -12.3545   -2.5828
    8.1353   -7.6955    9.3825   -5.4541   -0.2080  -14.4101   15.8812   -1.6529  -13.6585   13.3584
    2.2862  -16.6095    0.9251    8.0936    9.4855   -2.4507   10.3952   -1.6291    0.1389   10.3205
    4.0709    6.2045   15.5622   -6.5193   -0.8302    6.8621   -6.9716 -185.9676   -6.7883  174.2969
  -10.7673   16.4610   16.9587   35.6171   -5.9867   27.5785  356.1621
   -5.1183   -2.2991   -4.2626    0.4170  -12.7757   -7.8263    5.7943    1.8011   -0.6839   15.6135
    2.2824   10.8835    0.4566    6.5351   -9.2539    2.5915   14.6138   -7.0020    4.7211   -7.4904
    0.5185   -7.5932    6.4377    6.6848   -6.6963    8.5835    4.9587   -4.1785   10.5244    9.3951
    0.3341   -8.6567    3.1536   -1.4624   -6.4018   -5.5432    4.8843    0.0175    9.3333    3.9388
   -1.7019   10.9524   -7.4396    8.8904    3.2899    0.4014    4.5324    1.2124    8.8954   -0.1778
    7.8355   -5.8401   17.3673    0.0547   13.1143    5.8357  -17.2956  -14.5146  -64.0374   17.2624
   30.1261   15.2079  -30.9852   -5.5117  -12.6491    0.4010   -2.4013  169.4447
  -17.8016  -14.7139    3.7241  -11.6221    1.0381   -5.5429  -10.1772   17.2356    6.2076    0.3386
    1.9576   11.7693    3.2256    1.2332    0.6261    6.6870    1.0770   -9.9021   10.2698   -4.3723
  -10.4226   12.9942    0.6330   -0.5422   -2.5424   -4.5514    7.8147   -1.1135   10.9169    3.8760
   -8.1883    4.1526    4.3768   10.6933    2.4178    8.1041  -13.2132   -2.1063   15.0962  -25.6242
   -0.9837    5.1955   -6.7931   -4.0108    4.4957    1.2355    4.9433    0.8954    3.3667   -6.2663
    3.1263   -9.1511   -9.1732    3.3435    5.1292   -0.6422   -3.2478  168.3479    1.2372 -281.7521
   -2.1666    8.3145    7.3285  -19.3339   -0.7059    3.2441 -200.1524  -10.7011  448.6684
   -8.7137    5.6119   -9.8263    0.5746   -0.6033   -5.6425   -1.7104   14.0161   -9.5474    5.5629
   16.0064    4.8090   11.6491   18.5128   -5.3627    1.5507    9.1070    4.3519   13.5526    6.8732
   -2.4766    3.2871    5.6810    0.7734   -6.5558   13.0898    8.6083  -16.6015   -2.3027    1.9274
  -11.3977    1.1325    6.1783   -4.0649    3.4134   -6.7617   -7.2147   15.1734   -8.5696   20.3440
   12.2777   -2.8421   -0.8307    8.9331   13.4263    3.7313   19.4000    3.7717    5.4466   15.8941
   18.3713    7.4745   12.4443   -3.0006   12.2269   16.8313  -19.9169 -169.4368 -161.7251   -6.9500
   30.8694    5.3308   -4.2190    1.3177   -5.2562    1.1187    1.1227  -16.6855   -1.4925  292.0502
   15.8787   36.6818    3.3356   20.4957   -1.7177    3.0107    6.4941   14.1195    3.3560    8.9548
   22.6924   -1.6564    0.2083    6.9490   -0.1792  -11.5414   36.6596   -4.0151   20.7251   29.4673
   -3.2556   15.0558    4.3836    6.8695  -14.5931    1.0989    2.8601  -16.6714   -4.9095   -8.7386
  -17.3886   -1.2942   -2.8848    3.9856   12.3552    4.3585  -14.2047   25.0307   -3.6631   18.7408
   23.8839   -1.4171   -8.4521    8.0063    8.3962    3.5235   13.9825   -1.7049   10.4707   11.4010
    9.7582    6.4747    7.9828   -2.0699   14.3805    9.3162  -22.5101 -167.7923 -294.0497  -16.5760
   22.3898  -73.8457    4.1169  -11.3665   11.9765  -23.3099  -20.0529    3.9422   21.1566  162.4587
  476.6117
   -0.3222   -3.1263   -2.5764   -7.4112  -11.5872   -5.6530  -19.0386   18.9888   13.2749   -8.9524
   14.3248   10.6289   -1.7630   15.0450   11.3936    7.6852   -6.5121   -4.4356   11.0514   10.2452
    1.6421    5.2544   -1.7798  -15.0315    8.7106   -3.7009   -1.8971    7.7961    7.3038   -4.8303
   -1.8706    5.0156   -8.6557   -6.1414    3.7046   -6.2638   -2.4518    2.5688  -16.1674   -4.3387
    0.5489   -1.8507   10.8724  -11.2329   -2.0744   -1.4026   -2.1567    4.0288   -3.6566   12.2224
  -15.0239   -1.0131    3.7515    4.6583   -3.0417   -5.6952   -6.1185  -11.9936  -22.4762  -61.0269
    5.9153    6.6142   10.2481    3.2649  -13.4002    4.5997   -2.4167   12.3124   18.5599   24.7239
   30.1044  181.7065
   12.6791  -34.7399  -21.4934   16.0994   17.1883    5.6698   18.0313    3.0416   -7.4887   19.6216
    9.2389  -14.0308   16.5359    4.4637   -0.4861  -12.6923   -6.4436   -4.9306    9.0507   19.3905
  -22.4743   11.0309    3.6404    4.1173    4.1433   11.6228   12.2491    9.1566    0.1053  -17.5759
   -0.9318   -3.0468   13.0902    3.1382    4.7580   12.2582    5.9895    7.3581  -10.9657   14.0824
    7.5567  -13.2980   -8.0610    0.4100    8.7920   -4.6511   22.8254    1.9404   11.1934   -1.8504
    1.1077    0.9768    7.1473   -7.9128   -3.8867   -0.5902   -2.1800  -34.5788   26.1249    9.3741
 -244.6386  -15.6348  191.0409    6.3607    8.6384  -13.3504   16.8585   -6.9420  -20.1279   26.1551
   16.0962    5.2099  406.7316
  -12.4427  -12.8389    4.5762    1.8779   -2.7411   10.6835    6.5815   -0.3958   11.3713    1.7836
    9.8367   -1.7352    0.4792   -0.0048    3.7054    1.1440    9.3535  -14.6073   14.0741   12.6214
   -7.8537   14.5442    1.2231    1.0530    2.8055   -1.1834    1.2778    5.9370    6.7537   -6.6093
    3.9845   -0.0450    2.9216    6.2926    2.9032   -0.5070  -10.6703   -0.2933   -5.9573    0.9725
    3.4945   -0.8920   -3.2224   -3.2243    6.9973   -1.0320    9.7767    2.2374    4.9008    0.2031
  -12.1076   -5.5366    4.0690    3.6515   -0.6548    4.0353   -0.1413   34.7220   -7.0259  -28.1445
  -52.8235  -28.1426   59.5105    1.3213   -6.9508   -5.7292  -15.8442    7.4718   14.0854    8.8129
   -4.0343   -5.0289   12.7091  169.9595
  -16.2114   11.7390   23.4673  -20.1555   -0.7181   -3.4187   16.3913   -3.7535   10.4140   16.0521
   14.2897    3.3509   21.5109   32.9944  -15.5247   19.7142   -1.1875   -2.8541    0.6525    1.4397
    4.8628    5.7864    1.1862   -8.8492  -12.4594  -10.8572    1.5980    4.0565   -7.6509    2.3377
   -6.4015   -0.4473   -6.4742   -6.8258    8.0524   -0.2949  -34.7240  -21.7913    6.8608   -0.9271
   -9.9277    0.3560   -4.9834   -1.1368    3.1888    4.9427   -2.0188   -5.6651  -13.6962  -11.4386
    5.3391   -9.8978   -8.0508    8.7335   -4.2141    0.8024    2.4138   -6.0000    2.0373    4.2042
  177.9308   18.9800 -229.5398   11.4437    9.0598   21.9140   -8.9429    6.9663   -7.7274   -7.3533
  -20.1059    8.9527 -224.5192  -46.4380  344.2650
    6.9974  -14.0179    6.0849  -12.6433   -2.3597    9.4870   -9.3877    0.5143    1.9472   -9.5737
    0.5106   -1.3783   -2.1822   -6.5142   12.1018    7.2962  -11.0255    6.9720    6.3312   -1.6115
   13.0049  -17.1299   -2.2469  -18.6979    2.7153    0.0771   -1.1548  -13.9653   11.1828    3.6111
   -9.6072   -2.8640    7.5954   -6.1783    8.0373    0.4446    8.1887    3.4505   -2.8634   15.4345
    3.9404   -1.4774    8.0228    2.7427   -4.3015    3.7816   -3.9928    2.4334    3.5976   11.6801
    3.2844    7.3711   -2.4582   -4.0242    0.4667    2.5440   -1.9911  -17.9556   16.9336  -16.4745
  -93.3002   57.7701 -116.7555   11.2508   -5.0668   19.2368   -0.4418   12.7621    7.5081    8.3770
   -8.5488   -4.5984   12.0276   -2.4454   16.9830  212.8675
   -9.4796    4.1688   -9.6493   -6.6096   -8.4138    2.7535   -2.3369  -15.4869    7.0706   -0.2603
   -2.5560   10.2078   -7.5861   -5.0680   -3.4702   -2.4704    0.4282    1.8183    3.2843    8.2107
   -1.6885  -15.7967    1.9596   -7.1954    5.5808   -3.1573   -7.8065   -6.8613   12.3961    7.1099
   -5.3875   -3.6492   -1.0684   -1.2407    8.5764    2.7050    8.2056   -1.5506    2.4010   -2.7343
   -6.8533    2.5141   10.2764    0.0818   -9.5621   15.6095   -2.1182   -2.0255    2.6579   -5.5401
   -4.5981   -2.5013    0.4704    7.3010    9.5008    4.6058   -1.0233   25.7955  -27.1264   16.7941
   21.3278  -25.0847   50.5356  -18.2709    3.7699   -3.7661    6.1532   -5.7078  -11.8600  -11.3540
   -5.0984   -6.4853  -13.6580    6.2679   13.1686  -60.6038  182.4875
    9.1461  -36.3683    4.7290   13.3943   11.7118    0.3263   16.6015    4.3298   13.0145   23.1068
   -5.6290    8.2074    2.5690   20.9291   -8.6152   -6.4180  -18.4401    2.4615   10.8630   -7.2102
    8.0880  -12.2546    4.0205   -4.7781   -2.1737   -7.2695    2.2854    5.1913   17.8977    9.7690
  -19.9465   -5.4327   -0.1486    1.8101    6.8929   11.0698   10.6172   -1.3892   -5.8687    2.7602
    2.9055   17.3012    1.5640    1.0468    6.4279    1.5772   -4.8609    1.0673    8.4892   -4.0903
    0.3971   -7.1130   11.7177   13.2682    0.6958   -1.6528   -3.5026   -3.9502    1.6536   21.2060
 -108.0113  137.3521 -368.7879    6.8873    1.1097  -16.2604  -22.9176   -4.1517   32.1633   20.6906
   11.4697   12.1714   19.0136    4.9946   -9.3467  130.0031  -97.5386  502.9650
 -128.2931  -16.3941   15.4046  -75.6042   14.8074    3.6454   17.1283    4.8992  -17.5979    9.2791
   -5.2673   -6.4943   34.8416   11.3195    7.9121  -32.7898  -74.2679   59.4998   -7.4244   97.1173
  -21.0964  -21.1946   22.4545   -0.5596   53.5251   -9.0928  -32.4947   -8.0442   20.3957  -12.5903
   -9.8730   16.6147  -19.6135   12.4248    0.5301   13.1559  -50.8872    6.0030  -12.3414   73.2726
   -1.6421    7.0099   10.3623  -12.5255   14.6781    1.6450  -20.0106   -9.7114    0.2349   -3.3467
    0.3219    6.8461  -19.6561    2.4710    3.8205    9.3567    4.4522  -48.0032   15.9326    5.0865
  -53.2503  -16.9210  -10.1262   -1.4200  -12.8133   13.0976    0.0577  -11.7743   -8.8732   10.6011
   32.0553    0.3766    3.5820    4.0064    7.9111   12.9801    0.2762   25.7078  906.8008
   -7.2767 -109.2884  -19.1610   21.0867  -43.0458  -19.0937   -9.8077    8.7462   16.7517   11.6032
    2.1399   -2.6004    9.6616    9.9788   -1.9521 -122.3147  -19.3401   30.5027  -29.9588   14.5436
   18.5809   -0.6273  -20.2438   -0.9610   37.0031  -21.8150  -37.2328    8.5350   14.0439   10.2212
    8.5059   -6.1809   -1.0341   12.2596  -10.4274   17.7002  -15.4704   35.0375   -5.8453    9.3668
   -8.4268   11.3181   18.7188   -4.7934    3.6859   -4.5855   -8.0565    0.4107    8.0259    8.7358
   -3.5967   10.7404   -4.6211   -0.6250   -6.9166    3.4416   -5.5957   82.1483   -3.0685    0.0398
   61.8260  -36.1159   18.3435   -6.3625   -4.7433  -26.5097    2.3731   -1.9148   10.2218   20.7291
   -5.0106   -6.8362    4.4118   -9.1366    8.7894   -3.7411   -3.6789  -22.1822   79.8673  805.7919
   -0.1663   -1.9738  -50.8423  -38.8836    3.8316  -32.7613   10.6860   -5.8830   -3.6588   -2.6078
   -2.5335   -7.8511   24.4372   19.4560   -3.8461  -27.6343  -18.7637  -44.1025  -16.1103   14.1516
  -45.3805   10.0115   -7.6187   12.5615    9.8801   -5.9329   -8.4923   14.2503   28.3185    4.0267
    9.2821    5.5071   -1.9258   27.7175    2.3656   11.6238  -12.8611   -5.4910  -57.3764   -8.7873
   -8.5364   -2.7566    8.3821   -2.8280   11.1754    1.3011    1.3489   -0.3425   10.2564   -2.3344
   -5.3136    6.6947   14.8314   -8.9311    9.7205    4.9525   -5.1539  -23.1170   -6.0268  -53.1953
  -25.6709   14.4915  -47.1145   10.7799   -3.8312    9.5677  -12.5307    4.3628    8.1926   16.2740
   17.3555   -7.8203   10.6107   -0.3052    0.3319   15.3214    3.2452   20.9732    4.0854   19.0148
  864.4404
 -388.1365   67.7844   42.4341    3.7191  -46.0981  -11.3151   -1.9877    4.1969   -0.7494   21.8322
   -9.2463   15.9842   41.1368  -14.0548    5.3281  -20.7128   45.1944   -9.8747  -46.2006  -94.2115
   -9.1746   23.2194  -25.0307   11.0618   13.1633  -13.6065  -15.0181   24.6389   36.5850    2.9015
   39.2074  -23.4721   -7.3701   28.1744   -3.0747   24.2080   49.5014   10.2461    7.6644   24.3101
   -4.1630  -54.8829   16.1112    7.7598   -7.7809   11.3748    1.9992    4.9712   29.7846   -4.8158
  -24.8294   -3.7102   -7.5597   -7.8003  -17.2462   -1.7111   -6.6447   20.8118  -54.2298  -13.3272
   49.8821   56.3211    8.6258   19.6830   -1.3688    5.3917   19.0868    7.2587   -2.2034   17.2303
   -4.5165   -3.1643   18.5880    8.4622  -28.0125   -2.9789    7.3378   -5.4267 -302.8799 -136.3872
  -43.2578  967.4449
   53.0264 -161.2136  -23.6017    0.5531  -54.4295  -19.0111  -15.8004   -0.6567   13.8248   -5.4109
   41.6529    9.4239    1.3518    8.7555   16.8598  -48.5899  -27.0982   16.8977  -45.2997   29.6258
   24.5372  -17.0830   -5.0695   -8.1961    0.1336   19.6666    7.6143   22.9320   35.3495    0.1390
   -2.9690   -4.5979  -11.8607   -7.9339    3.1107   -4.7485  -32.2081   -2.2183   -0.9724  -16.8866
   15.2889   26.2986  -17.9533    2.5013   -5.1798   -5.4958    7.1121    4.6245    8.8745   -5.3114
   -6.6034  -11.0629    9.4943    6.5755   -2.6605  -23.8628   11.4652   39.6976  -11.6661  -13.8797
   52.6971   -9.1745   15.4312   -6.9163   -0.5981   -5.5552  -18.8452   -1.2075   17.0889   -3.4712
   -7.9338    3.0007  -16.7369  -15.2391   -5.5291    0.1340   -0.9527    4.8190 -133.3279 -298.6598
  -69.7838  134.9341  780.6654
  -11.9896    1.7196  -88.3604  -27.4080   -9.8482  -28.1033    7.9277   10.7312  -14.5773    4.4979
    0.1057    0.3910    6.9084  -14.3081    3.0571   -7.2951    8.7346  -52.7339   -3.2028    9.5792
  -21.8522   11.6927  -17.1154    4.9559  -15.3348   -1.3434   -0.9405   -1.7714   14.4535   -1.7839
   16.6702  -11.4043    1.3345   13.9171    0.1078   -8.0978   -7.3329   -1.2334  -27.9798    7.9966
    3.7969  -25.1284    5.8331    3.4844  -11.1161    8.8868   -0.3575   -7.1029    1.7619   -5.6114
   -3.2660    4.2519  -21.8711   -7.2406   -3.6319   -0.4288   11.5470   -7.4126   15.3895  -27.2001
   22.3975   23.6591  -13.2977   11.1756   -6.6567    2.5450    7.1954  -13.1025   -3.0509   -2.4790
   -5.5497  -10.0063   -0.2731    4.5020    3.7414    1.3625   -7.1469   -7.7969  -81.5407  -16.6450
 -196.4152   39.4090   -8.3455  869.9692
   -6.8807   10.4801   -2.2468   -2.3310   -1.5473   -1.4524    5.0611   -2.4430   -0.5897    1.2975
   -3.0621  -13.6298   17.2824   -6.2357   -5.0095   -0.0422   20.9303   -4.7979   -1.9980   -2.3169
   -0.3735    0.9378   13.8050    0.0467   -6.3294   -2.9851   -1.7749   11.6518   11.5630    6.4478
   -2.0004    0.5557   -3.1170   -9.0334   -0.5893   -7.0290    2.6551   -9.7269   -0.2713   10.9792
   -6.5695   -3.4928    6.3342   -0.3242    7.2355   11.0192    5.7789   -3.3384    6.1581  -12.0547
   -3.9023    7.9369    7.5422   -1.0965   -4.9688   -3.1857   10.6559   -9.7396  -12.4700   -4.0736
    0.8461   18.9001    8.2836   11.7015    2.2991    5.0643   -0.8038   -8.5827    1.9842   -2.1858
   -4.7730   12.9667    3.4106   -0.1078  -15.0011   16.6296    8.6248   -1.7691  -75.2432  -19.0213
   28.9208    4.6396  -29.5884   11.5249  187.3877
   -7.2745   26.2233   -5.7752   14.0159    4.2388   -8.6804    0.7833   12.3242    7.4120    2.9063
   38.4561    0.9656  -24.1097   13.1874    2.9137   25.7681   -1.2059  -32.7500   15.6975   12.3233
  -20.1318   45.4002    1.5396   16.7900   -6.1759    0.6537   14.6403    1.2570    1.2391    5.7304
    7.7208   -1.8104  -11.3652   11.7023    7.6770   -1.9726    7.0082   -2.1601   -6.1820    1.1755
  -15.2738   -6.0327   -7.8922   -2.8476   -5.6523   -1.2609    3.7126   10.7476    4.7959    4.2857
   -1.4683    5.9895    3.5110   -3.9688    4.5777   -0.6629   -2.3163  -13.2477    1.9112   -6.9074
  -26.1027   30.1375   -8.1673  -12.2489    2.8265   -1.7472  -15.0925    5.6386    4.9047   -6.6129
    7.2232   -7.0129   -2.0501    1.7540   -3.7891   -9.4200    1.3746   -1.9116  -32.5853 -298.0141
  190.1925  -29.3641    4.6403  -22.3169   42.6466  487.0960
  -11.4865  -21.8603    7.3412   -7.7595   -3.1028    5.3475   -1.3454    1.2224   -1.5478    2.2616
   -5.5024    3.5563   10.0752    7.4869   10.6464  -24.6576  -15.8404    9.7110  -10.3654   -8.1615
    6.8166  -16.3127   -9.8847  -14.4020   15.1662  -10.2515  -15.2258    7.3132    9.7985  -10.2058
   -3.0716    1.5594    1.1837   -7.0477   -6.2457    4.8383   -7.4740    4.1789   -2.5834    6.2456
    2.5852   -8.0360    9.5823   -3.5849   -6.9074   -4.4410   -4.8283   -3.4582   -2.3961    5.2932
   -9.7821    1.2718   -9.3514   -4.4652   -7.7634   -2.4494   -2.2993   13.5999   -6.4120   -6.7993
   21.8615   -9.4688   -1.8223    3.1608  -11.2389   -6.2022   14.3320    8.2050   -0.8966   13.9715
    1.3728  -17.2998   -1.8778   -8.8386    7.5767   -0.8411   -2.7128   12.0099   31.5257  169.4897
 -184.3465   22.9771  -12.2737   28.6362  -20.1890 -204.9551  325.3180
   -6.8859    3.6283    1.0891    7.7801    1.7463   -1.1794   -9.3740    3.1693   -5.7201    2.7880
    4.8558   -7.6706    5.5131    3.6406    3.2334   -7.4184   -1.1408   -1.3451  -11.3767   10.2642
   -8.6115    5.1280   -8.7354   -6.3647    6.3188   -2.6428    3.1565    8.8654   18.9255    4.4361
    1.8079   -2.8634   -6.6582   -1.7909    0.9756    2.2261   11.3605  -13.3033   -0.2932    8.8202
   -0.9617   12.2968   18.4890    5.6529   -1.9719    3.6567    9.8007   -1.1937   -1.4428    0.7822
   -6.1183    5.2289    4.7328   -6.2212   -8.2795   10.7581   13.6868   -8.7132  -13.8633   -3.6623
    3.2100   -1.8581   15.9317   -1.4670  -13.5127   -3.1300    1.2474   -4.3851    4.8100   -0.8355
    4.9854   -5.3236   13.8675    1.5864   -6.4850    8.3929    6.7133    3.5408  -68.7425   16.4753
   41.4033   16.3894  -21.0706  -23.6923   -5.2547   -1.6047  -11.5123  176.7320
   -8.0831    6.2556   11.7777    4.7488   -3.2442   -0.7813   -5.3131   19.6875   -5.5239   -0.8255
  -10.8945   -5.1410   11.7962   -3.5484   -9.1140   -3.3758   -1.0289    2.2834    9.0106   -3.5798
    9.3414   -9.6161   11.0013   13.3010    1.4200   -2.8764   -8.7276    5.8176    9.3740   10.1568
   16.0697   -1.4657   11.0265   11.8210    0.7379   -3.1601   -1.2670   10.2360    5.3316   14.6572
   -2.5459   -2.8563   -4.3005    2.3384    7.9737    0.0324  -18.5554   -7.1707    0.1557   -6.0085
    9.2073    0.2409   -5.1285   -2.7406   -1.8648   -1.9247    6.3463    5.9491   -0.3645    6.4164
   -4.0100   10.8602   -3.3158   -0.2534   16.1626   -3.1280  -14.9433   -2.1189    2.7013   -5.3965
   -3.8396   18.6338  -13.5890    2.3760   -5.5183   -2.9360   -1.4169   -2.7120   22.8069  -94.0498
 -112.3825   -9.3540   -0.5518  -14.3399   -5.6021   34.9683    6.4424   -1.7948  214.0282
  -16.1491   13.0381   21.6197   10.0298   -9.3969   33.1704    6.4365    5.7340   -6.3306    8.2649
   32.2531   -7.9276  -15.3448  -11.1670    6.2371   33.8268   23.5059   -6.9218   12.7856    1.3333
   -6.5690   20.9557    0.8992    8.1771  -34.9231    2.9861   24.1704  -14.2878  -28.8094  -11.6211
    3.0606  -11.8803    0.5770   11.5028    3.4028   -2.4398   14.7025   -0.0439   28.3927   17.2288
    6.5124   -7.3814   -3.5815    1.9946  -14.7776    4.1864    2.0640   -6.3203    1.3506    3.3139
   -7.4405   -1.1857   -2.9863   -8.0196   -3.7187   -1.5888   -7.6106    5.0876   -5.7027    8.6853
   -3.7186   27.7547    7.0756   -2.9463    1.6492   -6.4640  -10.4555    0.1792    7.4322   -7.4515
   -6.2213    3.1009   -6.3424   -2.3290   -3.2651   -8.6314   -7.7133    3.5788   24.1156  -94.6198
 -390.0134  -18.8957  -15.4719   -5.8730   -0.5203   38.6982   -5.6183  -41.4362  121.2070  580.3812
   36.4215  -16.5214    5.0450   17.0270  -12.3861   23.2575   18.8194  -12.2324   -2.8670    5.6559
   23.9699  -11.4412   -2.7517    4.1945    2.6155  -10.1105    5.8622  -40.8570   -0.9771   -0.6969
   18.1100   42.3234   -5.3059   25.1677  -20.3218   21.8553   20.9747   -2.6441  -20.2616  -10.8979
    3.9110   -7.5498    0.6426   13.7434    8.8260   -4.9123   11.9700   -1.4853    2.7184   35.1434
  -16.8740  -17.8359    3.9965    2.4976   -1.9317    2.1960   15.0357    7.8909    7.3074    5.3934
   -4.5701   10.8215    2.4572    1.4900   -3.2173    4.9187   -1.0945   13.8202   16.4931    0.4765
   31.1448  -26.0309    2.1304    7.4694   -3.4345   -0.4545   10.4874  -10.1596  -12.7061    3.2827
  -10.1791    2.8264    5.1510   -4.4167   -4.4609    7.2398   -9.1023   -6.6918 -293.8429  134.6075
   16.8201  -65.9999  -12.7665  -19.4848   11.2766   25.9426  -23.9857   -3.4766   -2.3997   41.9552
  499.4201
  -18.5557   -6.4438   -0.7214   -1.0358    9.2554  -14.8197  -29.5139   25.0756    6.5144   -1.6815
  -18.7925   15.8842    1.6409   11.7192   -7.8690   -2.5867  -12.2516   17.2132    1.1669   10.8265
    4.9798  -18.8863   -6.3991  -13.6115   30.0488  -22.0174  -24.2951   16.1145   23.5754    3.1403
   21.4699    4.4769   -6.3140    8.9411   -2.5208    4.0204  -14.6744    8.1734    6.9954  -10.1653
    9.2299    6.1785   -7.0078   -5.4936    2.6765  -13.9122  -15.9669    1.4688   -7.3436    2.7801
   -4.4271   -9.3826   -9.6802   -1.5181  -11.1823   -7.6216    5.4608   -1.8150   -3.2053  -13.4643
  -13.6591   16.7080    8.6388  -15.7217    5.5328  -10.4485  -10.6674   11.2496   14.7130   -3.7679
    4.6618  -12.9709    0.2622    5.0050   -3.4012  -15.6774   -2.3683   -3.8256  163.7925 -157.6931
   -9.6086   -9.0617   33.8217   16.8170   12.0554    1.4076   -4.3993    6.0994    8.3013  -23.4848
 -183.7064  303.3630
  -15.1181    0.7739   -6.7562   -0.3978   -8.1171  -11.3165   -0.5033    3.5445    1.6416   -5.4995
  -14.5608   -2.4604   14.0105  -12.3922  -12.4136   -8.9489   12.3078   -5.5375    2.9727  -10.9383
   13.5892  -15.0458    8.3469    5.0903  -11.3495   -3.7308  -18.5283    9.1493   12.0881   -0.8667
   11.6037    4.4873    8.7042   10.6831   -1.2085   -9.5684    1.2767   -7.1007    0.1177    5.8449
   -3.6905  -20.2315   -6.1644    2.0439    1.5424    3.4970    1.5147   -8.7174    0.2590  -11.5675
   -0.6248   -4.4064    2.2431   -0.9939   -0.5501   -9.1612    0.2878   -0.1949    4.7554    0.0604
   -0.0266   20.7915    2.2929   14.9782   14.2449    3.9340    3.8992   -2.1041  -11.1184   -0.7717
  -11.8331   14.1148   -4.5769    0.1399  -11.1155    2.3354   -0.0100   -7.4881   11.6140  -21.7892
  -59.3901    8.7691   16.2564    6.7650   -7.4595   -3.4304   22.9924   15.7084  -13.8616   18.6684
  -20.3662   19.1306  179.6768
   -7.5443   -0.1551    5.4807  -16.2105    0.5739   12.2211   17.8449  -12.6299    2.2783    2.9011
   -0.7500    5.4845   10.0124   -1.0573    4.8858  -13.9363   -1.1755   -0.9276   -9.3259   -4.8680
    6.8730   -0.5170   -9.9907    2.9312    5.1348   -8.9165  -11.0903    4.0945    6.5169   -2.5621
    7.8194   -1.6965    4.1774   13.3288    6.2162    5.2681   -2.4649    3.2504   -7.9124    8.3763
   -6.1292  -12.4075    3.3521   -5.8356    7.6111   -9.9599   -8.8650   -3.5299   -2.3097   -4.1844
   -5.3476    3.1685   -5.3923   -3.5409    2.3936  -12.9898    5.0565    2.7368  -13.2058    2.9062
   11.3626   12.1543   -5.9658    4.0080    3.3178   -4.7810   10.9204   -1.7811   -1.2295    5.8895
    6.3858   -2.9054   12.4920   13.7612   -0.8247    6.1881   -7.5456   -5.9888  -11.6795   -6.1446
  -32.5095  -24.9680   16.1933   34.3776    1.3306   -5.5550    4.2053   -4.9306    8.5425    7.9409
   -3.6621   -2.4681    3.5288  173.0211
    0.4129    7.4796    7.1484   11.5005   -7.0116  -19.9681  -21.7114   21.3727   -0.9282   -0.3925
    2.5617  -13.6557   12.3549   17.6914   -6.2588   -0.1785    5.9193   -7.5250    2.9066   -9.3578
    7.1589   19.1698   18.9523    3.9988   15.8403   -3.4048  -17.9839   25.5164   13.2170   12.4913
   -3.7288    3.5349  -15.7557   -1.6179   -3.0188   -5.0199   14.0089    5.8989    9.1891    9.1753
  -15.6905   12.9990   12.2137   -0.5618    5.9550    4.1419    5.4794   10.0809   -1.8503    8.0953
    1.5524   -0.5079    8.8986    4.4615   -5.7406   25.2196    3.8338  -17.6092    4.0629    2.9193
   -0.2764    6.3602    9.2681   -4.3999   -1.5608    2.8325   -5.6792   -1.7398   -0.9940   -5.3981
   -6.2894    3.5042  -10.9294   -8.5710   -8.2442    0.8531    7.2159   -2.7899  -10.7625  -36.2424
   -3.2130  -12.3573  -71.6469  -92.0553   -5.1650   15.1984    2.2490   -8.0794    3.8040   32.0185
   -7.6397    5.4429   10.1455   18.9455  192.0346
   19.6613  -12.6126   39.3630   16.8004   27.2575   18.7368    3.7654   -0.5397  -10.3572  -10.7333
   10.9745   -6.7097  -10.3649    1.7152   -4.8644    0.8023   -7.3287   -9.5881   16.5268   -0.4625
   10.1890    1.0953    5.7542    8.8693   -7.0808   16.5596   -0.0626   -8.2339   -2.5157   -2.2004
  -15.3159    9.2550   23.1122   36.2114   -3.9991   -2.1646   -1.9426    5.6477   -7.3068   15.0217
   -4.6416   19.0378    8.8966   -0.1884   14.2016    4.7862    0.7474  -11.0647   -2.9195   -6.2383
   -5.1589   -2.6654   16.7421   -8.3317   -6.5691   13.0688    0.3269   -4.4125   13.5176   -0.8841
  -20.7064    4.2616    2.3051    7.0942   -3.5266   13.8110  -12.0469   11.0901    5.0969   -1.4742
   10.8906    3.8920   -1.2059    0.2971    3.5459   -0.4963    8.2707   18.7636  -16.5946  -16.6279
    0.0225  -10.4022  -75.1633 -440.4646  -14.8522   -3.6727    9.4343   -1.2598   20.0547   24.6605
   14.9613   -4.0276   -7.9328  -20.2795   99.0356  611.7552
  -13.2914   10.0529   -3.7023   -7.3560    6.6038   -0.7319   -4.2096    1.8712   -3.8164    1.3906
  -18.7930   -0.7046   16.5443    4.8015   -8.6285   -0.4747   -9.0291  -16.0657   -2.0062   -8.3450
    4.8859   12.6532   -0.6836    3.0750   14.6007  -12.7078  -12.0562   17.3113   18.3287    5.8564
   15.2440   -0.3982    0.9375   17.8565   10.1672    0.8516    2.6682   11.6494    5.9137    8.7891
    1.4224   -2.7180    7.5356   -2.6885    8.7958    1.6605   -6.8134    7.8433    6.7177    2.9124
   -2.3063   12.9750   -2.1982   -4.1287  -11.5009    2.0938   16.4888    2.2652   -0.4060   -4.9845
    3.8171   24.6664   -6.0036   -1.8202   -0.4545    1.0908    1.6564   -8.4509    2.7293  -12.5284
   -7.7105   -1.7350    8.0016   16.3770   -1.7904   -0.8769   -9.4353  -12.1549  -37.9654  -35.5290
    6.5967  -13.1020  -23.6889   17.2127   -1.6275   13.3903   -5.4947   -5.5569   -1.8920    1.8394
   -6.7629   -3.2394    2.5239  -13.7695    1.9453   16.5062  171.9237
   25.7724   21.9917  -13.9640   -4.5624   34.0200    7.1023    4.9001   17.7748   -7.1305    4.3970
   -3.7229  -12.4396   -5.3475   -2.0472   -8.7566   10.1759   26.4670  -29.3318    6.0475   20.1497
  -20.1485   15.1705    7.5661   14.0463    2.3875   -9.0822   -2.0890   -4.9692   -9.0840    8.0492
   -0.3938   -5.1906   -3.5371   10.1054  -14.2303    6.0372   -2.2743    0.0564   -9.9685   -3.4978
   -7.9166   -7.1758    9.5532   -6.6578   10.3835   12.7921   -4.4213   -4.2406    0.6538   -4.6918
   -1.8033    8.0488   -5.5796    2.0449   -5.8361   13.0182   -1.1840  -10.6035  -10.6604    7.1012
  -31.8638   24.4312   -5.1681   -6.9518   -5.6060   -6.5486   -3.1602    0.7466    6.5859    7.9964
   21.7553   -4.7595    1.2022   -1.2438    4.9770    3.4745   12.1497    4.0071  -35.2318   -7.2348
   19.9551  -38.3984 -280.0573  165.9725   12.6837   29.4714  -11.4349    4.0274    1.2325  -22.4189
  -15.7463   22.2275   -4.9896   15.0624    9.0429   12.0670   42.6382  449.4466
  -17.5006    2.7819   15.9477    0.0709  -25.0241    3.3803    2.1772  -10.5088   -0.0317   -6.8614
   12.7849    4.4485   -5.0374   -2.4080    7.6331  -18.2163    0.6331   14.2392   -4.3327  -31.1117
    0.9671  -15.1455  -15.1687    9.1259  -24.1270   17.2709    8.4107  -20.8637    1.1422   -6.4452
    8.1985  -12.2722    7.2348   -2.2139    9.1711  -10.3741    4.3754   -0.4893   -6.4865   -5.3038
   -3.2312   -7.4379   -2.5004    6.1297  -13.2130    7.2944   -2.6384  -12.6989    0.5387  -10.1033
  -10.5147   -9.5743   13.6208    5.2374   -1.2307   -8.7129    1.8256    6.0295  -22.7399   -4.4084
   10.9458  -17.6313   -0.3636    9.4275   -0.0027   -4.9307   -0.3125    3.8822   -5.8456    8.0937
  -14.4026    3.4673   -3.6020  -17.7309   -1.4183    2.2256   -4.9299   16.7704   10.7117  -24.3445
   14.4187   60.2483  179.3778 -189.7001   -5.6925    1.1647  -15.7263    3.2665    5.7181   -0.2717
    3.5328    0.7525   -6.4442   -2.8848   16.1328  -12.4278   -5.7007 -192.2387  324.1851
  -40.2687   21.2071   -1.8304   25.6456  -15.9305  -15.6478   -9.8431    0.6055    9.2682    1.6020
    7.5072    2.4603  -14.1650   -2.9266    7.6830   16.3425    3.3929  -20.1291   10.3897  -31.7897
    2.6757  -11.6952    4.6507   -1.2647  -10.8927   13.8860   14.0134    3.3701   -8.4079    9.8508
    4.4706   -5.3359  -15.7943   -5.8603    6.1886   -4.8968  -23.0596  -10.7055  -16.7568   40.3413
   19.8286  -16.2053    2.8890   -2.7029    1.2223   -5.4175    3.9160   -0.5507  -10.7112    4.2258
    1.0313   -6.7699  -13.2216    6.2660   -4.8930   -4.8486    6.4271   -8.2879    6.9741  -12.1170
   24.8074  -22.3172    8.9184    4.8595    3.8114   13.4585    3.6278   -1.2728    0.2358    1.3693
    8.8330    3.5574   -5.5462    9.6493   11.6551    2.3275    5.5920  -12.4508   -3.6716  -17.2418
    7.7270   23.8776   10.8598   31.4262   -0.1888   11.7160    4.4525   -2.4492    7.9450    5.1157
    2.5982    2.9830    4.9213   -9.4995    8.7461  -15.1767    0.6046   -0.1691    6.1310 1656.6354
   15.8232   -2.1478   -2.1405  -20.7926    4.5371   -5.3981   16.1130   -4.7836   -7.1288    4.5752
  -10.9872    6.2140    2.8052   -0.2528    2.1407  -24.4713    2.3356    4.5543    0.1600   -9.6506
    7.1240   12.9614    5.9875    4.6691   14.0741   -7.7938   -2.6989   -8.8456   -2.2933  -18.0771
   -1.4609    5.5522    0.4417   -1.5053   -4.1199   11.1451  -10.6294   -2.9300  -44.0459    0.7778
   -1.3127    2.4825   -0.1479   -7.7125   23.4772    1.1697   -2.1292    4.6932   -6.1027    6.9657
   11.6689    8.9563    6.1583   -0.2097    0.6762   -6.3775    1.2463    2.8710   -4.3827   31.2990
  -26.0036  -17.9475  -10.7494   -7.6431   -7.5567  -16.2251    6.4077   -3.7331  -11.6115   11.6860
    8.3638   -4.4017   14.5318   -0.1358  -11.3981    8.1927   -6.9512   12.3571   36.0113   31.1851
   31.1563  -12.1852   -5.7984   -4.5173   -7.7892  -15.4265    1.0352    0.4121  -10.9032  -22.3742
   -5.4291   -8.3601   -2.7314    3.1772  -11.5643    6.5772   -5.4039    0.4706   -2.6370  -23.9095
 1677.0922
   12.9723  -17.5763  -26.3220   -8.5010   -5.5630    2.1637   17.1073   -3.3349   22.0217   -3.1396
   -8.0443    3.9374    5.5727    3.5350    0.4243  -25.0432   32.5750   -7.5754  -11.0563  -20.6733
    7.6228   24.4413   -8.5209   23.0849    2.4793   -3.4022   -4.3056    8.2718   -2.4164    0.2053
   11.9692   -4.4332   16.9188   19.6778  -11.2212   24.4976   21.1578   17.5898  -38.5753  -27.5817
    4.9190  -17.5665   26.8675   -8.7942   30.5894   21.0514  -14.4296    7.6922    1.9143    0.9893
   15.2848   -5.9687    6.2289    8.9599    6.0428   -5.9014   19.2323    2.0453   -4.8486    8.1608
  -18.3987   29.6981  -18.0405    2.6192   -5.7745   -1.1276   -0.2882    0.2834   13.8006   12.8075
   -8.1204    4.5559   -6.0483  -10.8857    6.1591  -13.4530   -4.0464   19.3806    2.0724   17.3443
   -0.2367    3.3308   -0.7696  -24.3057  -11.1579  -16.6498   15.8546  -12.8695    0.0106    8.6811
   -6.2910   -4.3075    2.7351    8.8591   -9.6227   11.3273    3.6256   -3.0211   14.0787    9.3229
   -3.0525  312.7173
   74.3942  -24.0272    7.9357   18.7612  -44.6684  -24.6529   27.1328   47.8266   58.0152    7.9073
   18.5824  -34.1310  -41.7482   26.8940  -14.2091  -29.3772  -41.6557   27.0368    8.4185   72.6371
   -8.3390  -48.7867  -21.1730  -20.3487   47.4239  -61.3144  -49.0987   30.7474   96.9992    2.3705
  -42.6271   28.8678   98.4221    6.0926  -48.7490   31.4148    3.3384    2.0834   -4.1343 -106.5789
  -40.2781   -4.5039   32.2803   15.4486    1.7746   40.1768   30.3031   11.6568   36.1845   -8.1116
   -0.5045   10.1030   50.0302  -18.6245   36.6190    9.6547   22.6258   16.2739   -9.5039   37.9471
  -50.1942   53.3740    6.7581  -25.0280   19.4111  -44.1857    4.4381    6.3115   -5.6451   10.4046
   15.8972   -5.2797  -11.9556   -1.3123  -22.9804  -14.0835  -22.9116   23.3198   -8.1879   33.1114
   29.2869  -26.7016  -46.8109  -43.6204   -3.5190   -6.3851  -24.9360   -9.6261  -32.5627  -47.9018
   16.2381   -0.8357   -7.1921   38.2629  -27.8470   36.0388   10.3964   24.0043  -31.9482 -793.4009
  -23.4958   81.1134 4211.4930
    6.8494  -13.0462   -4.0132   -7.3289   17.7499   13.8171   -3.3092   -5.2741   -7.0526    2.4470
  -17.5235   -4.5688   10.3099    8.5468   -3.3671  -29.3601   -2.5764  -10.9254    2.9295    6.0304
    1.4518   10.5337   -7.8973   -2.1467    0.6283   -9.0717   -4.2455   11.2647   18.4891    2.3969
    5.2746    0.1240   -4.8082   -4.0652   -0.5784    2.4779   -5.0471   26.5280   -8.8777  -11.8120
   -4.3662   11.1067    2.7910   -2.5589    4.3467    4.7816   -9.5635   -1.9437    5.5435   -3.8821
   -0.2385   -1.5413   -5.5710   -1.3014    3.6068    7.8379    0.9045   19.3431   -0.4769   11.1636
    3.6641   10.3978   13.6733   -3.9724    3.9312   -7.8851   -8.4552   -1.5440    5.4010   -0.8498
   -7.4934    0.8031   -4.0093   -3.0326    0.6447  -10.1812    0.0667  -15.2472   12.3602  -13.0678
    4.3034   -5.1718  -18.3416   -7.1706    4.4029    6.2434   -2.3286    2.6837    1.9932   -0.0021
   -8.5776    7.5214    3.2015    4.9754   -0.6329   -0.3976    0.1454    7.7752   -2.0679  -54.3472
 -131.2252    9.9370  291.8809  325.1799
    8.7507  -18.5639   16.6719   -6.1901   13.6422    9.4053    0.1173   -0.2632    4.5837   -4.7619
[...]
   -8.3624    8.3283   -8.9729   -1.1750   11.2272   -4.3821   -9.6213   11.7334   -6.8739  -21.3022
    3.6969  -17.9477    1.0422   -4.0667    1.9450   11.0425   11.5319   11.7943    3.5540  -11.0625
   -2.1759   10.2025   25.2080   -3.2950   -3.5320    6.9676   11.9298   17.8778  -31.4765  -25.6521
   -3.9721   10.5327   11.0011   -3.8302   14.2075    3.3798  -10.1548    7.6389   -6.5079    3.8988
   12.8342    1.8776   13.3388   -5.7156    2.4634   -6.3626   12.1762    4.9854  -14.4874  -12.7630
   -5.5268   29.4318    0.6947    2.0282   10.4882    8.5116   -0.8468    9.6505    5.2182    3.6683
   -1.8882    5.4895  -21.0229   -7.7676   -3.0362   -3.8671   -7.1730   16.4957   15.3921   12.1634
  -10.8754  -16.5147   -0.4270  -34.4404   -7.6340   -6.4805    6.2753  -12.6570   -2.7860    3.6628
    6.0307   -9.5070    2.6152   14.0810    6.2311   25.3834    4.8650  -21.1604   12.8202  -38.0157
   46.1638  -93.8790   53.0263   -4.6939    8.5189   82.5486 -133.6892  -42.4729  -78.0421 -117.3960
  330.0478
   -8.4628  -14.4910   -2.2248    3.2048   28.6018   -6.4535    5.8217   -7.8463  -13.9304    2.4636
  -20.4325   13.0559    0.3012  -11.2734   -4.0999  -61.9579   10.4554   22.2883  -11.6295    3.7067
    7.6931   26.6281    3.0649    4.8150   30.7285   12.0217  -17.8233   -7.8176  -24.9107  -27.5643
   18.6997    9.8327  -20.0257    8.2941   -4.1021    6.4965   -4.5434   40.2100  -43.1635  -10.2414
   10.5803    1.1874   -1.7146  -12.7915    9.1277   -3.1819  -35.7028   -2.2366    0.0210   -0.2622
    7.5588    5.4330  -10.6732   -6.3032   -2.9700  -18.6394   13.3756   24.0854    8.3847    7.6282
   -3.9425   -6.7527    9.8746   -0.4511   -0.1031   -4.1767  -17.3450   -1.9055   10.8523   -1.6657
  -10.6804   -6.5762    7.0087   -5.5122  -10.8211   -7.9917    0.3145   -1.0525   40.5465  -12.5016
   32.3028   10.1383  -32.4593    4.7184   -4.0339    0.8697   -2.5570   -4.7030   -1.8082  -14.6331
  -13.1182    4.2916    2.5034    5.9152   -2.6954   -8.8369   -4.2655    6.5746    4.9895  -59.0305
   26.1150   16.7674   56.5287   13.1657   -6.0512   23.8434 -136.1500  -66.1179 -634.7499-1157.3194
   73.5075  735.2038
  -37.9805  -20.0541  -15.7975  -21.9676   49.0409    8.7991   26.4405  -24.9956  -16.4484   -2.0900
   -1.3900   18.2466    3.7339  -21.7524   -6.3230  -11.0088    0.1253   26.0399   34.0478  -30.6982
    5.4145  -15.6494   15.7452  -15.6203   25.8665   15.9364  -15.6436  -13.8653  -29.4555  -34.1347
    6.1347   24.4694  -17.8028  -18.2037   -8.4682   -4.6635   17.3637  -16.8700  -38.4886  -23.1405
   -2.3899   14.4534  -13.4650   -8.0784  -10.1778   -0.1760   -7.9472    4.3187    0.8944    2.6627
   13.1890    4.2340   14.6728    3.1230    2.4437  -28.1047   -1.7312  -34.0863    4.6354   27.2235
   -2.3126    2.4112   16.7166   12.3369   -6.4414   18.8507   -3.3729   -9.6674   -1.6556    9.1946
    3.8796   -1.8646   39.0642    4.9416  -28.0360    0.2047   -8.0050    8.5748   38.2780   47.2097
   11.6425   68.1822  -16.2198   -0.4280  -17.2889  -37.7261   23.9482   -5.4706   -1.0261  -27.9034
  -13.9305    5.8946    2.1627   -4.6545   -1.1357  -33.3649  -18.1238  -13.8203   32.4516 -130.1795
   24.7958   16.3129   41.8924  -42.7342  -35.1510   89.6633 -198.2993 -105.5940-1126.2627-2427.7056
   89.7029 1121.6838 2465.0044
  -10.7858   11.7147   -3.6299   31.7567    5.8455    9.7371  -17.0680    8.9229    9.5053   -9.8702
  -10.1260    1.8700  -14.3059   -7.1516   -5.6630   25.9203  -12.3901  -57.1523   21.6722   12.1779
  -24.4666   19.5085    1.9291   17.7570  -40.9388    2.4498   39.5431  -12.5596   -1.1026   28.3394
  -23.4799   -4.6499    9.5945    6.9496    3.0346    3.4929  -23.1861  -10.6012   -2.7433   13.0417
   16.0146  -10.5550   -9.7673    0.4861    9.3499   -5.3773    8.0084    1.1707   -8.3291    0.5643
    5.6468   -0.3858   -9.7960   15.0316   -0.3163   -3.7942   18.3327    9.3559   23.8651  -19.5249
    9.4172  -33.7082  -25.8866    3.2051   -8.3328   10.3824  -12.7588   -4.6712   21.3860   -7.5402
    0.9067    5.0177    2.4873    7.0501   21.4712   14.4206    6.0111    9.4097  -14.9808  -19.6325
  -18.3208    3.0378   19.1934    7.7833    4.2386    4.9101    5.7694    8.9450   12.2188   27.0526
   -1.3803    7.2030    7.9160  -15.7648    2.6819    7.8262   -4.7381    2.5753    4.5067   68.6645
  -96.2929   14.2758  -68.6732   -4.7807  -27.5162  -98.8001  144.1058   14.1649  114.1264  198.5718
 -139.3452 -105.4113 -154.8899  282.1954
   -5.9397   -9.0318   -3.1622   -6.7373   -1.3417   16.5425    5.4668    5.4447   -6.2895   -0.7236
   12.0935    3.9049    6.7529   -0.1256   -5.9969   31.7573  -24.6112  -13.1106   37.7706   17.7940
  -13.4634  -26.5461    6.4043   -0.1003  -18.8469   15.2336   35.1349    5.2178   -7.6052    5.4012
   -5.1627   11.3608   19.1623  -12.6233    7.3150  -14.7156   31.8572  -36.4928   34.7150   -4.9467
  -10.9604  -23.7283   -5.2370   12.7788  -36.7183    1.2155   18.6202   -1.5240  -11.9257    0.1675
   -7.0844    5.7168    7.6040    3.6834    4.7007    8.7092   -5.1932  -35.9383    3.0029  -18.6676
    3.9647   33.0391   11.9048   16.3632   -1.8916   21.5102    0.4013    6.8340   -7.8306   -4.3512
    5.7134    1.7224   -5.5376  -13.2237    6.5788   -5.0033    0.1258   -3.6720  -27.4415   10.2979
   19.0788  -20.6344   16.6050   -2.9868   -4.6964   13.7398   -3.4260   -6.5187    4.5673    5.9154
   29.5308    6.9327   -3.3513   -1.8773   -9.6110  -14.3153   -5.9095  -13.2282    7.7175  -60.9675
    3.5017   35.9735  -58.6363  -20.1505  -22.3153 -988.9554 1340.7220   74.2457   18.4947  125.7784
  -60.8187  -75.7436  -76.8803   54.2290 1053.2483
   -1.1814   21.5196    3.6015    3.0981  -21.0358  -37.2349   -6.4116    3.1926   -1.2276    4.0642
   13.2541   -1.9215  -12.1056   -1.1206   17.7297   28.0743   39.7293  -13.7137  -19.1890  -55.6011
    4.3866   21.3527    2.8880   -3.8323  -16.7490   -5.0535  -10.7623  -11.8882  -12.5700  -16.6141
  -11.6918  -12.4409   -3.2642    3.7179   -1.5978   13.6693  -26.7256  -30.0912  -69.2645   -2.4100
   -9.9329   25.2501    9.8226   -7.4457   41.7526    0.6812   18.8846    6.0709    5.3874    5.9784
   19.9314   -1.0196   21.7038   -1.8292  -18.1304  -17.4516   14.3424  -23.0998  -25.5226   48.6302
  -27.0540  -20.4300    4.5400   -9.9919    3.1780  -14.3455   27.7946   -3.2119  -18.2986   21.1810
    7.7046    2.6355   23.6238   15.9350  -24.7810   15.9928    8.1992   28.0381   -4.3749   40.3475
   -8.3467   65.8450    8.0905   10.3983    0.7708  -36.5973   17.9745    7.0536  -19.1652  -25.0270
  -15.9511  -23.7096    4.0256   10.0395    5.4309    7.5616   11.6817    0.0398   -0.9443  133.8017
   23.8922  -37.1816  125.3846  -33.8373   45.6461 1363.1995-2097.8165 -130.0614  -99.9904 -189.9212
   99.8377   74.0088   63.0972  -99.3417-1308.8998 2155.8392
   -7.7202  -11.2556    2.6676   15.2319  -36.9675  -23.3153  -19.4041    9.9895   22.7366   -2.8585
    7.5235    7.3163    0.4516    1.9575    6.3184    4.1358   -2.9585   -7.2942   15.8235   -7.2984
   -6.4448    0.9844    9.0669   -0.4630   -2.2856   11.0713   11.6261   -1.0295  -11.0749    4.7218
  -11.6886   -4.4253   -0.7187   -7.0024    2.0670    1.3036  -15.2482   -9.6106  -45.5646    0.9345
   17.8033  -11.2368   -2.1943   -7.4035   24.6896   -4.1591    8.9317   10.3231  -19.1869   10.4001
   22.4237    0.0554    3.8342   11.0358   -3.4011  -17.9263   24.7152   -7.0126    3.6085  -28.7133
   17.5795    3.4885  -22.8008    7.9795   -5.5672   15.0832   -6.3874   -3.6713   22.8807   12.7627
   13.7343    7.2106   -1.4621    2.3389   14.5686   15.5009    4.1382   17.6396   11.7788   -5.3099
    5.2211    6.1783   21.4334   -9.1008   -2.8393    0.1372    6.4582   -0.9340    7.7925    8.5848
   -4.7087    0.0205    6.9108   -6.4144    2.9654   14.0184   -3.1963   -9.9818   18.3090   49.8235
   84.1859   15.5789    2.0191   -3.9949   -6.5242  132.1297 -228.2212 -115.5102  -90.5133 -162.1642
   14.3459   58.6052  119.9916  -63.2696 -115.0326  192.3814  252.7766
  -42.0638   18.6578   -4.0848   -5.8498   36.3753   19.4557  -14.9581  -53.2285  -41.0137   -7.5754
   -5.0148   27.2071   28.6734  -22.2227    5.5223    3.9916   41.9266  -13.0197  -10.2149  -63.3300
   19.9986   46.2156   15.6540   18.4050  -34.9578   45.7099   25.5583  -27.4461  -71.3500  -15.7668
   27.9955  -19.8732  -67.4825   -2.5098   34.5965  -27.6946   10.6992    1.8070  -28.9863   45.3757
   23.1974  -15.8788  -16.7670  -17.4961   16.3068  -30.8550  -16.2649   -3.1103  -23.8884   10.0644
   -3.2565   -6.3773  -27.3140   12.8119  -20.8292  -12.1439  -14.6873  -22.0753    5.9312  -21.5769
   14.7011  -42.9082    0.9772   27.1564  -17.5586   36.7508   11.8260  -12.5580  -12.4319  -13.7257
  -23.7065   -0.4806   22.1455    5.5907    9.7377    6.3967    8.1040  -17.8952    2.7961   -9.7417
    7.3956   13.4813   43.6930   45.0911    3.9963  -10.7183   18.5619    8.5680    6.4994   12.3097
  -28.3998   -4.9030    4.7673  -26.6759   19.6397  -33.8162  -10.2122  -18.5133   19.4811 -177.1182
  -40.1924  -68.1713-3033.7712 -227.2654 -213.3296  -74.1135  117.8420    6.7632    0.0464   75.8319
  -37.5474  -72.3540   12.1915   19.2514   44.6007 -181.5928  -44.6893 3119.8765
    1.0310   -3.3060    6.2563   19.5034   18.0948    2.5333   -1.3175    1.2982   -4.4370   -4.0867
   -9.3184   -2.3399   -7.1321   -5.3256   -0.6385  -38.9924  -10.6632  -23.5066  -27.9635   18.7603
  -12.2369   27.2252   -6.9166   15.4479    7.5514    2.8596   -2.2007   -0.4886    3.4752    2.8305
    4.6208   -3.2140   -6.7125   23.3357    0.2182   10.7853  -14.0852   32.4670  -12.7008   16.1860
   11.0703   -8.0255    1.8917   -6.9339   15.3846   -4.2129  -21.6476   -2.4926    1.9656   -0.3546
   -2.3633    2.1534   -9.4095   -2.0338    1.2846   -5.3888    9.4128   29.7778    6.8687   15.2586
    5.7251  -19.2755    2.6536  -10.2780    3.7383  -10.8254   -4.9777    3.7413    5.3610   -5.5576
   -8.0163   -0.5916   -7.1533   -0.9007    6.2073   -7.2733    2.0695   -5.2054   13.0885  -50.8895
    7.4631  -17.2612   -3.7937    7.1029    2.3322   18.9898  -12.7103   -2.8172    0.1934    7.5277
  -11.3384    4.3522   -0.2236    0.3497   -2.6200    2.5751    2.5318    6.9923   -8.3284  -11.8053
   16.1751  -13.5338 -234.7712  -93.6870   -9.7042  -35.7416   -9.0486    2.2045   25.7286   -5.0790
   -3.7466  -20.3239  -46.4292    0.4876   31.7905  -59.0852    3.3405  233.3419  201.7242
  -18.8271   -5.4183  -23.6414  -15.9540  -29.9755   -5.1996    4.4871    9.3371    4.7908    3.8896
   14.6922    9.4668   13.6034    3.6405   16.1749  -18.8300   14.7599  -16.8127    0.3997  -18.0261
    8.0326   22.4207    2.6298   20.9151  -11.1848   17.7032   16.9401   -5.1916  -14.8998    3.0963
    1.6144   -6.2896  -13.1866   12.8424    3.9529    8.3187   -9.6608    2.1123  -13.9236   27.2558
   -5.4309   -0.5755   -5.7361   -1.7497    6.1538  -10.3126   -4.4360    2.2926  -10.2210    3.1407
    8.1536    1.4783   -8.2242    9.7886   -7.7719    0.8321   -1.9724  -12.2007    4.5624  -22.8098
    6.0086   16.2506   -7.9494   12.3345   -5.9327   15.4956   -2.0479   -3.6147   16.1609    7.3577
    2.9962    5.4522    9.3356    1.4591   11.0828   16.1691    0.2361   23.4322    6.6763    7.8388
  -18.2383    4.1075   14.4703  -15.2072   -1.0348   -6.7361   14.7110    0.8380   13.0885   24.8351
   11.0629   -8.8063    7.1526   -9.5120   14.7741   27.8115   -0.9747   -6.4546    7.9641  -47.5804
    3.2450   23.2683 -307.0821  -24.2014 -120.6448   -8.9832   31.7757  -11.4895   -2.2424  -32.0769
  -32.0708   19.1642   55.7354  -27.4458   32.3650  -59.8416  -44.5898  323.5422   22.5305  269.0230


      MOLECULAR POINT GROUP   :   C1  


          ALPHA EIGENVALUES  
 -32.94820 -30.10503 -30.10079 -29.96218 -24.74837 -22.53106 -21.73596 -21.42201
 -19.99485 -17.25038 -16.21396 -15.46909 -15.34578 -15.33673 -14.24906 -12.03017
 -11.89029 -10.39524 -10.19565  -9.93731  -9.51612  -9.41463  -9.35809  -9.25160
  -9.24940  -9.08170  -8.89930  -8.79625  -8.46311  -8.45980  -8.40507  -8.18078
  -7.95787  -7.76221  -7.76096  -7.43777  -7.23012  -7.11063  -6.84866  -6.31561
  -6.28592  -6.08023  -5.93845  -5.18644  -4.54114  -4.13171  -3.34333  -3.05881
  -2.83964  -2.71001  -2.29957  -1.99491   5.83729   5.84061   6.09299   6.09777
   6.59588   7.28193   7.83933   8.26987   8.78982   8.79298   9.03279  10.61581
  10.61904  10.67990  10.71643  10.76822  10.78627  10.89668  10.92289  10.93502
  10.99676  11.03846  11.05781  11.09975  11.11109  11.15026  11.20994  11.21728
  12.12770  12.17301  12.28584  12.33543  12.45557  12.60495  12.66169  12.70672
  13.13501  13.25102  13.31014  13.32516  13.37682  61.39650  64.45738  64.57359


           BETA EIGENVALUES 
 -32.70565 -30.10513 -30.10085 -29.96225 -24.47234 -22.53105 -21.71531 -21.39885
 -19.98759 -17.11891 -16.18588 -15.44520 -15.34577 -15.33673 -14.20819 -11.91743
 -11.78335 -10.39524 -10.15576  -9.89618  -9.48752  -9.35814  -9.34046  -9.25163
  -9.24944  -9.05801  -8.88994  -8.78000  -8.46316  -8.45984  -8.38766  -8.18081
  -7.76224  -7.76100  -7.73496  -7.37042  -7.07167  -7.01388  -6.57567  -6.22663
  -6.18915  -5.94204  -5.83107  -4.58524  -4.13173  -3.85874  -3.01365  -2.83889
   5.83726   5.84060   6.09294   6.09772   6.46197   6.51140   6.59180   6.59587
   6.64369   7.28198   8.39208   8.67478   8.78984   8.79299   9.03281  10.61579
  10.61903  10.69226  10.72867  10.78589  10.81127  10.90146  10.92831  10.94400
  11.00244  11.04354  11.06378  11.11467  11.14856  11.20994  11.27885  11.36000
  12.13232  12.17948  12.29034  12.34247  12.46400  12.61191  12.66794  12.71941
  13.15044  13.32122  13.32678  13.38180  14.08277  63.01053  65.58209  65.65421


              NET ATOMIC CHARGES AND DIPOLE CONTRIBUTIONS

  ATOM NO.   TYPE          CHARGE      No. of ELECS.   s-Pop       p-Pop       d-Pop       
    1         Mn           0.415701        6.5843     0.96890     0.40943     5.20597
    2          N          -0.573710        5.5737     1.54476     4.02895
    3          H           0.232041        0.7680     0.76796
    4          H           0.248246        0.7518     0.75175
    5          H           0.253839        0.7462     0.74616
    6          C          -0.357595        4.3576     1.04444     3.31315
    7          C          -0.562325        4.5623     1.03394     3.52839
    8          H           0.110047        0.8900     0.88995
    9          H           0.117227        0.8828     0.88277
   10          H           0.077235        0.9228     0.92276
   11          H           0.102754        0.8972     0.89725
   12          H           0.111498        0.8885     0.88850
   13          C          -0.357817        4.3578     1.04518     3.31264
   14          C          -0.570742        4.5707     1.02169     3.54905
   15          H           0.086703        0.9133     0.91330
   16          H           0.118171        0.8818     0.88183
   17          H           0.084650        0.9154     0.91535
   18          H           0.124613        0.8754     0.87539
   19          H           0.134862        0.8651     0.86514
   20          C          -0.359670        4.3597     1.04572     3.31395
   21          C          -0.579990        4.5800     1.02295     3.55704
   22          H           0.089390        0.9106     0.91061
   23          H           0.116299        0.8837     0.88370
   24          H           0.083146        0.9169     0.91685
   25          H           0.119204        0.8808     0.88080
   26          H           0.136360        0.8636     0.86364
   27          C          -0.360315        4.3603     1.04591     3.31440
   28          C          -0.578030        4.5780     1.02602     3.55201
   29          H           0.100501        0.8995     0.89950
   30          H           0.115180        0.8848     0.88482
   31          H           0.079603        0.9204     0.92040
   32          H           0.110825        0.8892     0.88918
   33          H           0.132099        0.8679     0.86790
   34          C          -0.474525        4.4745     0.95010     3.52442
   35          C           0.260617        3.7394     1.08977     2.64961
   36          C           0.261242        3.7388     1.08988     2.64887
   37          C           0.260869        3.7391     1.08978     2.64935
   38          N          -0.435846        5.4358     1.83825     3.59760
   39          N          -0.437037        5.4370     1.83831     3.59873
   40          N          -0.435320        5.4353     1.83822     3.59710
 DIPOLE           X         Y         Z       TOTAL
 POINT-CHG.     0.414    -0.411    29.961    29.967
 HYBRID         0.193    -0.044     0.431     0.474
 SUM            0.606    -0.455    30.392    30.402


          ATOMIC ORBITAL ELECTRON POPULATIONS

     Atom    s        px        py        pz      x^2-y^2     xz        z^2       yz        xy
    1 Mn   0.96890   0.16220   0.15935   0.08789   1.03140   1.04933   1.07146   1.03537   1.01840
    2  N   1.54476   1.24705   1.26546   1.51644
    3  H   0.76796
    4  H   0.75175
    5  H   0.74616
    6  C   1.04444   1.13082   1.07354   1.10879
    7  C   1.03394   1.12777   1.28715   1.11347
    8  H   0.88995
    9  H   0.88277
   10  H   0.92276
   11  H   0.89725
   12  H   0.88850
   13  C   1.04518   1.08247   1.12984   1.10033
   14  C   1.02169   1.14823   1.08186   1.31896
   15  H   0.91330
   16  H   0.88183
   17  H   0.91535
   18  H   0.87539
   19  H   0.86514
   20  C   1.04572   1.10820   1.08517   1.12057
   21  C   1.02295   1.16036   1.21856   1.17812
   22  H   0.91061
   23  H   0.88370
   24  H   0.91685
   25  H   0.88080
   26  H   0.86364
   27  C   1.04591   1.07810   1.10503   1.13127
   28  C   1.02602   1.27201   1.17812   1.10188
   29  H   0.89950
   30  H   0.88482
   31  H   0.92040
   32  H   0.88918
   33  H   0.86790
   34  C   0.95010   0.93712   0.93688   1.65042
   35  C   1.08977   0.89299   0.88833   0.86829
   36  C   1.08988   0.88940   0.89156   0.86791
   37  C   1.08978   0.88917   0.89203   0.86815
   38  N   1.83825   1.14486   1.20451   1.24824
   39  N   1.83831   1.15391   1.19594   1.24888
   40  N   1.83822   1.22541   1.12371   1.24798


                    (SZ)    =    2.000000
                    (S**2)  =    6.016721


          ATOMIC ORBITAL SPIN POPULATIONS

    Atom   Total    s     px     py     pz   x^2-y^2  xz     z^2    yz     xy
         Atomic
    1 Mn  3.9310  0.073  0.004  0.003  0.001  0.330  0.871  0.889  0.898  0.863
    2  N  0.0937  0.042  0.010  0.012  0.030
    3  H  0.0133  0.013
    4  H  0.0086  0.009
    5  H  0.0061  0.006
    6  C  0.0084  0.002  0.000  0.004  0.003
    7  C -0.0468 -0.006 -0.004 -0.027 -0.010
    8  H -0.0003 -0.000
    9  H -0.0003 -0.000
   10  H -0.0004 -0.000
   11  H  0.0069  0.007
   12  H  0.0066  0.007
   13  C  0.0085  0.001  0.005  0.001  0.001
   14  C -0.0249 -0.003 -0.012 -0.001 -0.009
   15  H -0.0002 -0.000
   16  H -0.0002 -0.000
   17  H  0.0000  0.000
   18  H  0.0064  0.006
   19  H  0.0062  0.006
   20  C  0.0090  0.001  0.003  0.004  0.000
   21  C -0.0391 -0.005 -0.010 -0.022 -0.002
   22  H -0.0002 -0.000
   23  H -0.0003 -0.000
   24  H -0.0008 -0.001
   25  H  0.0067  0.007
   26  H  0.0058  0.006
   27  C  0.0073  0.001  0.003  0.002  0.001
   28  C -0.0228 -0.004 -0.014 -0.006  0.001
   29  H -0.0002 -0.000
   30  H -0.0000 -0.000
   31  H -0.0003 -0.000
   32  H  0.0059  0.006
   33  H  0.0062  0.006
   34  C  0.0000  0.000 -0.000  0.000  0.000
   35  C  0.0000  0.000  0.000  0.000  0.000
   36  C  0.0001  0.000  0.000  0.000  0.000
   37  C  0.0000  0.000  0.000 -0.000  0.000
   38  N -0.0000 -0.000 -0.000 -0.000 -0.000
   39  N -0.0001 -0.000 -0.000 -0.000 -0.000
   40  N -0.0000 -0.000 -0.000 -0.000 -0.000

 **********************
 *                    *
 * JOB ENDED NORMALLY *
 *                    *
 **********************



 TOTAL JOB TIME:             5.22 SECONDS

 == MOPAC DONE ==
