 *******************************************************************************
 ** Site#: 26130        For non-commercial use only     Version 16.299L 64BITS**
 *******************************************************************************
 ** Cite this program as: MOPAC2016, Version: 16.299L, James J. P. Stewart,   **
 ** Stewart Computational Chemistry, web: HTTP://OpenMOPAC.net. Days left: 350**
 *******************************************************************************
 **                                                                           **
 **                                MOPAC2016                                  **
 **                                                                           **
 *******************************************************************************

                              PM7 CALCULATION RESULTS


 *******************************************************************************
 *  CALCULATION DONE:                                Thu Nov 10 15:55:32 2016  *
 *  PM7        - The PM7 Hamiltonian to be used
 *  QUARTET    - SPIN STATE DEFINED AS A QUARTET
 *  UHF        - UNRESTRICTED HARTREE-FOCK CALCULATION
 *
 *
 *
 *                 CHARGE ON SYSTEM =    -2
 *
 *
 *
 *  XYZ        - CARTESIAN COORDINATE SYSTEM TO BE USED
 *  EF         - USE EF ROUTINE FOR MINIMUM SEARCH
 *  T=         - A TIME OF 172800.0 SECONDS REQUESTED
 *  DUMP=N     - RESTART FILE WRITTEN EVERY  7200.000 SECONDS
 *  HESSIAN    - WRITE OUT HESSIAN FROM GEOMERY OPTIMIZATION
 *******************************************************************************
 EF PM7 XYZ HESSIAN QUARTET UHF CHARGE=-2
 1004_C_9_4

   ATOM   CHEMICAL          X               Y               Z
  NUMBER   SYMBOL      (ANGSTROMS)     (ANGSTROMS)     (ANGSTROMS)
 
     1      Cr          0.00000000  *   0.00000000  *   0.00000000  *
     2       O          0.00000000  *   2.09000000  *   0.00000000  *
     3       C          1.20024100  *   2.31054300  *   0.00008200  *
     4       C          2.30004200  *   1.21629400  *   0.00010000  *
     5       C          3.69588300  *   1.72049300  *   0.00015200  *
     6       C          4.04424900  *   3.13719300  *   0.00051500  *
     7       C          5.54709300  *   3.50316900  *   0.00040700  *
     8       C          6.22901900  *   2.93243000  *   1.26210500  *
     9       C          6.22915800  *   2.93235100  *  -1.26121800  *
    10       C          5.81682500  *   5.02981200  *   0.00034400  *
    11       C          3.05655800  *   4.05216300  *   0.00040400  *
    12       C          1.66562400  *   3.70825200  *   0.00044500  *
    13       O          2.08999900  *   0.00000100  *   0.00000000  *
    14       H          4.45846700  *   0.95272000  *   0.00023600  *
    15       H          5.75358500  *   3.31486100  *   2.17328300  *
    16       H          7.28836400  *   3.21191600  *   1.29891700  *
    17       H          6.18642100  *   1.83885800  *   1.29758400  *
    18       H          5.75385100  *   3.31475300  *  -2.17247200  *
    19       H          6.18657000  *   1.83878100  *  -1.29665400  *
    20       H          7.28852500  *   3.21182000  *  -1.29791300  *
    21       H          5.39633200  *   5.51483200  *  -0.88844700  *
    22       H          6.89333300  *   5.24033700  *   0.00033900  *
    23       H          5.39633200  *   5.51490100  *   0.88908200  *
    24       H          3.25746500  *   5.12070800  *   0.00079500  *
    25       H          0.90631300  *   4.48032800  *   0.00045900  *
    26       O          0.00000000  *  -2.09000000  *   0.00000000  *
    27       C         -1.20021200  *  -2.31071300  *  -0.00027800  *
    28       C         -2.30004300  *  -1.21642400  *   0.00011600  *
    29       C         -3.69655200  *  -1.72149200  *  -0.00012100  *
    30       C         -4.04375800  *  -3.13841000  *   0.00030700  *
    31       C         -5.54664800  *  -3.50441400  *   0.00043300  *
    32       C         -6.22770000  *  -2.93417900  *   1.26239100  *
    33       C         -6.22775000  *  -2.93386800  *  -1.26138200  *
    34       C         -5.81458300  *  -5.03116400  *   0.00027800  *
    35       C         -3.05617800  *  -4.05272300  *  -0.00016400  *
    36       C         -1.66515600  *  -3.70847200  *   0.00041100  *
    37       O         -2.08999900  *  -0.00000100  *   0.00000000  *
    38       H         -4.45857700  *  -0.95306600  *   0.00078300  *
    39       H         -5.75267400  *  -3.31773300  *   2.17335400  *
    40       H         -7.28723000  *  -3.21301000  *   1.29883700  *
    41       H         -6.18432400  *  -1.84069400  *   1.29898700  *
    42       H         -5.75261000  *  -3.31715100  *  -2.17235800  *
    43       H         -6.18432300  *  -1.84037300  *  -1.29759000  *
    44       H         -7.28728800  *  -3.21269400  *  -1.29787500  *
    45       H         -5.39358800  *  -5.51583100  *  -0.88850300  *
    46       H         -6.89087200  *  -5.24262800  *   0.00026100  *
    47       H         -5.39360500  *  -5.51600900  *   0.88899100  *
    48       H         -3.25566900  *  -5.12050900  *   0.00031200  *
    49       H         -0.90533600  *  -4.47923700  *   0.00024000  *
    50       N         -0.00000100  *   0.00000100  *   2.20000000  *
    51       C         -1.07284800  *  -0.53898000  *   2.89187200  *
    52       C          1.07284600  *   0.53898200  *   2.89195600  *
    53       N          1.96904200  *   0.98932600  *   3.46947300  *
    54       N         -1.96914500  *  -0.98918400  *   3.46928300  *
    55       C         -0.00012700  *   0.00056300  *  -4.99709800  *
    56       C         -0.93584400  *   0.75273800  *  -4.29423100  *
    57       C         -0.89461700  *   0.72184300  *  -2.90934300  *
    58       N         -0.00000600  *   0.00000800  *  -2.20000000  *
    59       C          0.89460600  *  -0.72182800  *  -2.90984900  *
    60       C          0.93503700  *  -0.75192500  *  -4.29476900  *
    61       H         -0.00031300  *   0.00099100  *  -6.08329000  *
    62       H         -1.67855100  *   1.34852800  *  -4.81188200  *
    63       H         -1.60154400  *   1.29430200  *  -2.31568400  *
    64       H          1.60126800  *  -1.29471700  *  -2.31671300  *
    65       H          1.67767500  *  -1.34814400  *  -4.81293800  *
 


          CARTESIAN COORDINATES 

    NO.       ATOM         X         Y         Z

     1        Cr        0.0000    0.0000    0.0000
     2         O        0.0000    2.0900    0.0000
     3         C        1.2002    2.3105    0.0001
     4         C        2.3000    1.2163    0.0001
     5         C        3.6959    1.7205    0.0002
     6         C        4.0442    3.1372    0.0005
     7         C        5.5471    3.5032    0.0004
     8         C        6.2290    2.9324    1.2621
     9         C        6.2292    2.9324   -1.2612
    10         C        5.8168    5.0298    0.0003
    11         C        3.0566    4.0522    0.0004
    12         C        1.6656    3.7083    0.0004
    13         O        2.0900    0.0000    0.0000
    14         H        4.4585    0.9527    0.0002
    15         H        5.7536    3.3149    2.1733
    16         H        7.2884    3.2119    1.2989
    17         H        6.1864    1.8389    1.2976
    18         H        5.7539    3.3148   -2.1725
    19         H        6.1866    1.8388   -1.2967
    20         H        7.2885    3.2118   -1.2979
    21         H        5.3963    5.5148   -0.8884
    22         H        6.8933    5.2403    0.0003
    23         H        5.3963    5.5149    0.8891
    24         H        3.2575    5.1207    0.0008
    25         H        0.9063    4.4803    0.0005
    26         O        0.0000   -2.0900    0.0000
    27         C       -1.2002   -2.3107   -0.0003
    28         C       -2.3000   -1.2164    0.0001
    29         C       -3.6966   -1.7215   -0.0001
    30         C       -4.0438   -3.1384    0.0003
    31         C       -5.5466   -3.5044    0.0004
    32         C       -6.2277   -2.9342    1.2624
    33         C       -6.2278   -2.9339   -1.2614
    34         C       -5.8146   -5.0312    0.0003
    35         C       -3.0562   -4.0527   -0.0002
    36         C       -1.6652   -3.7085    0.0004
    37         O       -2.0900   -0.0000    0.0000
    38         H       -4.4586   -0.9531    0.0008
    39         H       -5.7527   -3.3177    2.1734
    40         H       -7.2872   -3.2130    1.2988
    41         H       -6.1843   -1.8407    1.2990
    42         H       -5.7526   -3.3172   -2.1724
    43         H       -6.1843   -1.8404   -1.2976
    44         H       -7.2873   -3.2127   -1.2979
    45         H       -5.3936   -5.5158   -0.8885
    46         H       -6.8909   -5.2426    0.0003
    47         H       -5.3936   -5.5160    0.8890
    48         H       -3.2557   -5.1205    0.0003
    49         H       -0.9053   -4.4792    0.0002
    50         N       -0.0000    0.0000    2.2000
    51         C       -1.0728   -0.5390    2.8919
    52         C        1.0728    0.5390    2.8920
    53         N        1.9690    0.9893    3.4695
    54         N       -1.9691   -0.9892    3.4693
    55         C       -0.0001    0.0006   -4.9971
    56         C       -0.9358    0.7527   -4.2942
    57         C       -0.8946    0.7218   -2.9093
    58         N       -0.0000    0.0000   -2.2000
    59         C        0.8946   -0.7218   -2.9098
    60         C        0.9350   -0.7519   -4.2948
    61         H       -0.0003    0.0010   -6.0833
    62         H       -1.6786    1.3485   -4.8119
    63         H       -1.6015    1.2943   -2.3157
    64         H        1.6013   -1.2947   -2.3167
    65         H        1.6777   -1.3481   -4.8129

 General Reference for PM7:
 "Optimization of Parameters for Semiempirical Methods VI: More Modifications to the 
 NDDO Approximations and Re-optimization of Parameters", J. J. P. Stewart, J. Mol. Mod., 1:32, 19 (2013)
 http://www.springerlink.com/openurl.asp?genre=article&id=doi:10.1007/s00894-012-1667-x

           Empirical Formula: C27 H29 N4 O4 Cr  =    65 atoms



      MOLECULAR POINT GROUP   :   C2  


 QUARTET STATE CALCULATION


          UHF CALCULATION, NO. OF ALPHA ELECTRONS =   96
                           NO. OF BETA  ELECTRONS =   93

          Geometry optimization using EF

          DIAGONAL MATRIX USED AS START HESSIAN

 CYCLE:     1 TIME:   0.215 TIME LEFT:  2.00D  GRAD.:   365.695 HEAT: -64.42597
 CYCLE:     2 TIME:   0.078 TIME LEFT:  2.00D  GRAD.:   304.898 HEAT: -82.85625
 CYCLE:     3 TIME:   0.141 TIME LEFT:  2.00D  GRAD.:   262.045 HEAT: -90.41704
 CYCLE:     4 TIME:   0.070 TIME LEFT:  2.00D  GRAD.:   107.699 HEAT: -99.14461
 CYCLE:     5 TIME:   0.070 TIME LEFT:  2.00D  GRAD.:   193.828 HEAT: -99.18508
 CYCLE:     6 TIME:   0.090 TIME LEFT:  2.00D  GRAD.:   151.842 HEAT: -103.3847
 CYCLE:     7 TIME:   0.156 TIME LEFT:  2.00D  GRAD.:   116.279 HEAT: -106.5812
 CYCLE:     8 TIME:   0.070 TIME LEFT:  2.00D  GRAD.:    84.870 HEAT: -107.8692
 CYCLE:     9 TIME:   0.141 TIME LEFT:  2.00D  GRAD.:    75.856 HEAT: -108.8649
 CYCLE:    10 TIME:   0.074 TIME LEFT:  2.00D  GRAD.:    89.258 HEAT: -109.0205
 CYCLE:    11 TIME:   0.090 TIME LEFT:  2.00D  GRAD.:    91.666 HEAT: -109.3893
 CYCLE:    12 TIME:   0.082 TIME LEFT:  2.00D  GRAD.:    43.490 HEAT: -110.4384
 CYCLE:    13 TIME:   0.082 TIME LEFT:  2.00D  GRAD.:    39.539 HEAT: -111.1821
 CYCLE:    14 TIME:   0.074 TIME LEFT:  2.00D  GRAD.:   101.949 HEAT: -111.2343
 CYCLE:    15 TIME:   0.070 TIME LEFT:  2.00D  GRAD.:    57.271 HEAT: -112.3729
 CYCLE:    16 TIME:   0.219 TIME LEFT:  2.00D  GRAD.:    33.315 HEAT: -113.0119
 CYCLE:    17 TIME:   0.074 TIME LEFT:  2.00D  GRAD.:    24.325 HEAT: -113.3740
 CYCLE:    18 TIME:   0.133 TIME LEFT:  2.00D  GRAD.:    40.984 HEAT: -113.4670
 CYCLE:    19 TIME:   0.066 TIME LEFT:  2.00D  GRAD.:    16.637 HEAT: -113.8208
 CYCLE:    20 TIME:   0.133 TIME LEFT:  2.00D  GRAD.:    35.056 HEAT: -113.8335
 CYCLE:    21 TIME:   0.062 TIME LEFT:  2.00D  GRAD.:    11.694 HEAT: -114.1812
 CYCLE:    22 TIME:   0.145 TIME LEFT:  2.00D  GRAD.:    29.800 HEAT: -114.1905
 CYCLE:    23 TIME:   0.070 TIME LEFT:  2.00D  GRAD.:    10.069 HEAT: -114.4964
 CYCLE:    24 TIME:   0.133 TIME LEFT:  2.00D  GRAD.:    27.601 HEAT: -114.5209
 CYCLE:    25 TIME:   0.066 TIME LEFT:  2.00D  GRAD.:    13.149 HEAT: -114.7660
 CYCLE:    26 TIME:   0.133 TIME LEFT:  2.00D  GRAD.:    18.998 HEAT: -114.7892
 CYCLE:    27 TIME:   0.070 TIME LEFT:  2.00D  GRAD.:     7.255 HEAT: -114.9498
 CYCLE:    28 TIME:   0.066 TIME LEFT:  2.00D  GRAD.:    19.284 HEAT: -115.0482
 CYCLE:    29 TIME:   0.090 TIME LEFT:  2.00D  GRAD.:    15.939 HEAT: -115.2469
 CYCLE:    30 TIME:   0.195 TIME LEFT:  2.00D  GRAD.:    11.147 HEAT: -115.2995
 CYCLE:    31 TIME:   0.066 TIME LEFT:  2.00D  GRAD.:    10.159 HEAT: -115.3523
 CYCLE:    32 TIME:   0.066 TIME LEFT:  2.00D  GRAD.:    12.827 HEAT: -115.4075
 CYCLE:    33 TIME:   0.062 TIME LEFT:  2.00D  GRAD.:    16.596 HEAT: -115.4739
 CYCLE:    34 TIME:   0.070 TIME LEFT:  2.00D  GRAD.:    13.906 HEAT: -115.5624
 CYCLE:    35 TIME:   0.066 TIME LEFT:  2.00D  GRAD.:    13.368 HEAT: -115.6442
 CYCLE:    36 TIME:   0.070 TIME LEFT:  2.00D  GRAD.:    22.619 HEAT: -115.6607
 CYCLE:    37 TIME:   0.070 TIME LEFT:  2.00D  GRAD.:    19.034 HEAT: -115.7874
 CYCLE:    38 TIME:   0.195 TIME LEFT:  2.00D  GRAD.:    10.945 HEAT: -115.8701
 CYCLE:    39 TIME:   0.066 TIME LEFT:  2.00D  GRAD.:    13.678 HEAT: -115.8768
 CYCLE:    40 TIME:   0.078 TIME LEFT:  2.00D  GRAD.:     8.528 HEAT: -115.9298
 CYCLE:    41 TIME:   0.125 TIME LEFT:  2.00D  GRAD.:     7.866 HEAT: -115.9487
 CYCLE:    42 TIME:   0.066 TIME LEFT:  2.00D  GRAD.:     6.287 HEAT: -115.9741
 CYCLE:    43 TIME:   0.070 TIME LEFT:  2.00D  GRAD.:     5.275 HEAT: -116.0073
 CYCLE:    44 TIME:   0.066 TIME LEFT:  2.00D  GRAD.:     6.680 HEAT: -116.0491
 CYCLE:    45 TIME:   0.062 TIME LEFT:  2.00D  GRAD.:    11.638 HEAT: -116.0899
 CYCLE:    46 TIME:   0.066 TIME LEFT:  2.00D  GRAD.:    15.948 HEAT: -116.1311
 CYCLE:    47 TIME:   0.066 TIME LEFT:  2.00D  GRAD.:    14.126 HEAT: -116.2020
 CYCLE:    48 TIME:   0.199 TIME LEFT:  2.00D  GRAD.:    13.393 HEAT: -116.2173
 CYCLE:    49 TIME:   0.066 TIME LEFT:  2.00D  GRAD.:    11.005 HEAT: -116.2437
 CYCLE:    50 TIME:   0.070 TIME LEFT:  2.00D  GRAD.:    12.200 HEAT: -116.2531
 CYCLE:    51 TIME:   0.062 TIME LEFT:  2.00D  GRAD.:    10.569 HEAT: -116.2764
 CYCLE:    52 TIME:   0.070 TIME LEFT:  2.00D  GRAD.:    11.458 HEAT: -116.2834
 CYCLE:    53 TIME:   0.066 TIME LEFT:  2.00D  GRAD.:     6.195 HEAT: -116.3247
 CYCLE:    54 TIME:   0.066 TIME LEFT:  2.00D  GRAD.:     9.166 HEAT: -116.3351
 CYCLE:    55 TIME:   0.062 TIME LEFT:  2.00D  GRAD.:     9.268 HEAT: -116.3632
 CYCLE:    56 TIME:   0.125 TIME LEFT:  2.00D  GRAD.:     9.104 HEAT: -116.3687
 CYCLE:    57 TIME:   0.070 TIME LEFT:  2.00D  GRAD.:     9.503 HEAT: -116.3889
 CYCLE:    58 TIME:   0.066 TIME LEFT:  2.00D  GRAD.:     6.355 HEAT: -116.4104
 CYCLE:    59 TIME:   0.062 TIME LEFT:  2.00D  GRAD.:    10.352 HEAT: -116.4135
 CYCLE:    60 TIME:   0.066 TIME LEFT:  2.00D  GRAD.:     5.063 HEAT: -116.4522
 CYCLE:    61 TIME:   0.188 TIME LEFT:  2.00D  GRAD.:     4.674 HEAT: -116.4559
 CYCLE:    62 TIME:   0.062 TIME LEFT:  2.00D  GRAD.:     5.002 HEAT: -116.4635
 CYCLE:    63 TIME:   0.066 TIME LEFT:  2.00D  GRAD.:     3.941 HEAT: -116.4723
 CYCLE:    64 TIME:   0.066 TIME LEFT:  2.00D  GRAD.:     5.127 HEAT: -116.4851
 CYCLE:    65 TIME:   0.066 TIME LEFT:  2.00D  GRAD.:     4.026 HEAT: -116.5022
 CYCLE:    66 TIME:   0.066 TIME LEFT:  2.00D  GRAD.:     7.960 HEAT: -116.5200
 CYCLE:    67 TIME:   0.066 TIME LEFT:  2.00D  GRAD.:     5.379 HEAT: -116.5513
 CYCLE:    68 TIME:   0.070 TIME LEFT:  2.00D  GRAD.:    13.426 HEAT: -116.5588
 CYCLE:    69 TIME:   0.062 TIME LEFT:  2.00D  GRAD.:     7.600 HEAT: -116.6020
 CYCLE:    70 TIME:   0.258 TIME LEFT:  2.00D  GRAD.:     7.728 HEAT: -116.6124
 CYCLE:    71 TIME:   0.074 TIME LEFT:  2.00D  GRAD.:     2.556 HEAT: -116.6284
 CYCLE:    72 TIME:   0.207 TIME LEFT:  2.00D  GRAD.:     3.000 HEAT: -116.6313
 CYCLE:    73 TIME:   0.070 TIME LEFT:  2.00D  GRAD.:     4.274 HEAT: -116.6609
 CYCLE:    74 TIME:   0.133 TIME LEFT:  2.00D  GRAD.:     6.811 HEAT: -116.6632
 CYCLE:    75 TIME:   0.066 TIME LEFT:  2.00D  GRAD.:     5.409 HEAT: -116.6915
 CYCLE:    76 TIME:   0.066 TIME LEFT:  2.00D  GRAD.:     9.669 HEAT: -116.6923
 CYCLE:    77 TIME:   0.066 TIME LEFT:  2.00D  GRAD.:     6.527 HEAT: -116.7311
 CYCLE:    78 TIME:   0.254 TIME LEFT:  2.00D  GRAD.:     3.872 HEAT: -116.7481
 CYCLE:    79 TIME:   0.066 TIME LEFT:  2.00D  GRAD.:     3.560 HEAT: -116.7564
 CYCLE:    80 TIME:   0.082 TIME LEFT:  2.00D  GRAD.:     3.297 HEAT: -116.7715
 CYCLE:    81 TIME:   0.082 TIME LEFT:  2.00D  GRAD.:     6.069 HEAT: -116.7763
 CYCLE:    82 TIME:   0.070 TIME LEFT:  2.00D  GRAD.:     2.679 HEAT: -116.8032
 CYCLE:    83 TIME:   0.070 TIME LEFT:  2.00D  GRAD.:     5.529 HEAT: -116.8186
 CYCLE:    84 TIME:   0.066 TIME LEFT:  2.00D  GRAD.:     6.009 HEAT: -116.8458
 CYCLE:    85 TIME:   0.074 TIME LEFT:  2.00D  GRAD.:     5.869 HEAT: -116.8790
 CYCLE:    86 TIME:   0.066 TIME LEFT:  2.00D  GRAD.:     6.654 HEAT: -116.9281
 CYCLE:    87 TIME:   0.133 TIME LEFT:  2.00D  GRAD.:    11.798 HEAT: -116.9300
 CYCLE:    88 TIME:   0.066 TIME LEFT:  2.00D  GRAD.:     6.950 HEAT: -117.0104
 CYCLE:    89 TIME:   0.074 TIME LEFT:  2.00D  GRAD.:    12.996 HEAT: -117.0492
 CYCLE:    90 TIME:   0.078 TIME LEFT:  2.00D  GRAD.:    14.002 HEAT: -117.1633
 CYCLE:    91 TIME:   0.082 TIME LEFT:  2.00D  GRAD.:    23.251 HEAT: -117.3199
 CYCLE:    92 TIME:   0.137 TIME LEFT:  2.00D  GRAD.:   212.107 HEAT: -142.5558
 CYCLE:    93 TIME:   0.086 TIME LEFT:  2.00D  GRAD.:   219.964 HEAT: -146.4771
 CYCLE:    94 TIME:   0.082 TIME LEFT:  2.00D  GRAD.:    87.670 HEAT: -157.3250
 CYCLE:    95 TIME:   0.141 TIME LEFT:  2.00D  GRAD.:    95.780 HEAT: -158.1592
 CYCLE:    96 TIME:   0.074 TIME LEFT:  2.00D  GRAD.:    42.444 HEAT: -160.4660
 CYCLE:    97 TIME:   0.078 TIME LEFT:  2.00D  GRAD.:    69.488 HEAT: -160.4998
 CYCLE:    98 TIME:   0.074 TIME LEFT:  2.00D  GRAD.:    65.700 HEAT: -160.7266
 CYCLE:    99 TIME:   0.145 TIME LEFT:  2.00D  GRAD.:    63.131 HEAT: -161.3666
 CYCLE:   100 TIME:   0.074 TIME LEFT:  2.00D  GRAD.:    44.054 HEAT: -161.8919
 CYCLE:   101 TIME:   0.141 TIME LEFT:  2.00D  GRAD.:    26.921 HEAT: -162.2834
 CYCLE:   102 TIME:   0.066 TIME LEFT:  2.00D  GRAD.:    29.205 HEAT: -162.3125
 CYCLE:   103 TIME:   0.070 TIME LEFT:  2.00D  GRAD.:    19.173 HEAT: -162.5179
 CYCLE:   104 TIME:   0.070 TIME LEFT:  2.00D  GRAD.:    19.577 HEAT: -162.5528
 CYCLE:   105 TIME:   0.074 TIME LEFT:  2.00D  GRAD.:    22.767 HEAT: -162.6128
 CYCLE:   106 TIME:   0.070 TIME LEFT:  2.00D  GRAD.:    16.503 HEAT: -162.6967
 CYCLE:   107 TIME:   0.137 TIME LEFT:  2.00D  GRAD.:    16.762 HEAT: -162.7415
 CYCLE:   108 TIME:   0.066 TIME LEFT:  2.00D  GRAD.:    15.180 HEAT: -162.7779
 CYCLE:   109 TIME:   0.070 TIME LEFT:  2.00D  GRAD.:    14.808 HEAT: -162.8062
 CYCLE:   110 TIME:   0.066 TIME LEFT:  2.00D  GRAD.:    15.376 HEAT: -162.8138
 CYCLE:   111 TIME:   0.082 TIME LEFT:  2.00D  GRAD.:    16.052 HEAT: -162.8211
 CYCLE:   112 TIME:   0.066 TIME LEFT:  2.00D  GRAD.:    13.629 HEAT: -162.8590
 CYCLE:   113 TIME:   0.141 TIME LEFT:  2.00D  GRAD.:     8.422 HEAT: -162.9080
 CYCLE:   114 TIME:   0.129 TIME LEFT:  2.00D  GRAD.:     3.546 HEAT: -162.9313
 CYCLE:   115 TIME:   0.070 TIME LEFT:  2.00D  GRAD.:     3.458 HEAT: -162.9395
 CYCLE:   116 TIME:   0.066 TIME LEFT:  2.00D  GRAD.:     4.143 HEAT: -162.9524
 CYCLE:   117 TIME:   0.066 TIME LEFT:  2.00D  GRAD.:     6.580 HEAT: -162.9643
 CYCLE:   118 TIME:   0.082 TIME LEFT:  2.00D  GRAD.:     5.703 HEAT: -162.9958
 CYCLE:   119 TIME:   0.102 TIME LEFT:  2.00D  GRAD.:     7.736 HEAT: -163.0091
 CYCLE:   120 TIME:   0.098 TIME LEFT:  2.00D  GRAD.:     6.930 HEAT: -163.0320
 CYCLE:   121 TIME:   0.352 TIME LEFT:  2.00D  GRAD.:     5.966 HEAT: -163.0437
 CYCLE:   122 TIME:   0.094 TIME LEFT:  2.00D  GRAD.:     4.979 HEAT: -163.0554
 CYCLE:   123 TIME:   0.090 TIME LEFT:  2.00D  GRAD.:     4.031 HEAT: -163.0655
 CYCLE:   124 TIME:   0.094 TIME LEFT:  2.00D  GRAD.:     4.564 HEAT: -163.0747
 CYCLE:   125 TIME:   0.094 TIME LEFT:  2.00D  GRAD.:     5.020 HEAT: -163.0855
 CYCLE:   126 TIME:   0.094 TIME LEFT:  2.00D  GRAD.:     6.302 HEAT: -163.1018
 CYCLE:   127 TIME:   0.094 TIME LEFT:  2.00D  GRAD.:     5.032 HEAT: -163.1260
 CYCLE:   128 TIME:   0.098 TIME LEFT:  2.00D  GRAD.:    10.690 HEAT: -163.1319
 CYCLE:   129 TIME:   0.098 TIME LEFT:  2.00D  GRAD.:     6.346 HEAT: -163.1741
 CYCLE:   130 TIME:   0.188 TIME LEFT:  2.00D  GRAD.:    10.528 HEAT: -163.1777
 CYCLE:   131 TIME:   0.094 TIME LEFT:  2.00D  GRAD.:     4.748 HEAT: -163.2198
 CYCLE:   132 TIME:   0.340 TIME LEFT:  2.00D  GRAD.:     5.720 HEAT: -163.2203
 CYCLE:   133 TIME:   0.094 TIME LEFT:  2.00D  GRAD.:     4.761 HEAT: -163.2331
 CYCLE:   134 TIME:   0.098 TIME LEFT:  2.00D  GRAD.:     3.794 HEAT: -163.2427
 CYCLE:   135 TIME:   0.094 TIME LEFT:  2.00D  GRAD.:     1.756 HEAT: -163.2566
 CYCLE:   136 TIME:   0.070 TIME LEFT:  2.00D  GRAD.:     2.669 HEAT: -163.2696
 CYCLE:   137 TIME:   0.070 TIME LEFT:  2.00D  GRAD.:     2.677 HEAT: -163.2938
 CYCLE:   138 TIME:   0.086 TIME LEFT:  2.00D  GRAD.:     6.646 HEAT: -163.3064
 CYCLE:   139 TIME:   0.074 TIME LEFT:  2.00D  GRAD.:     3.679 HEAT: -163.3350
 CYCLE:   140 TIME:   0.191 TIME LEFT:  2.00D  GRAD.:     4.770 HEAT: -163.3407
 CYCLE:   141 TIME:   0.094 TIME LEFT:  2.00D  GRAD.:     4.644 HEAT: -163.3507
 CYCLE:   142 TIME:   0.188 TIME LEFT:  2.00D  GRAD.:     5.698 HEAT: -163.3522
 CYCLE:   143 TIME:   0.090 TIME LEFT:  2.00D  GRAD.:     2.779 HEAT: -163.3693
 CYCLE:   144 TIME:   0.082 TIME LEFT:  2.00D  GRAD.:     3.545 HEAT: -163.3787
 CYCLE:   145 TIME:   0.094 TIME LEFT:  2.00D  GRAD.:     2.001 HEAT: -163.3921
 CYCLE:   146 TIME:   0.090 TIME LEFT:  2.00D  GRAD.:     3.004 HEAT: -163.4050
 CYCLE:   147 TIME:   0.098 TIME LEFT:  2.00D  GRAD.:     2.927 HEAT: -163.4216
 CYCLE:   148 TIME:   0.094 TIME LEFT:  2.00D  GRAD.:     4.150 HEAT: -163.4322
 CYCLE:   149 TIME:   0.098 TIME LEFT:  2.00D  GRAD.:     4.537 HEAT: -163.4438
 CYCLE:   150 TIME:   0.090 TIME LEFT:  2.00D  GRAD.:     5.929 HEAT: -163.4470
 CYCLE:   151 TIME:   0.102 TIME LEFT:  2.00D  GRAD.:     4.422 HEAT: -163.4546
 CYCLE:   152 TIME:   0.090 TIME LEFT:  2.00D  GRAD.:     3.161 HEAT: -163.4648
 CYCLE:   153 TIME:   0.098 TIME LEFT:  2.00D  GRAD.:     5.885 HEAT: -163.4714
 CYCLE:   154 TIME:   0.094 TIME LEFT:  2.00D  GRAD.:     4.517 HEAT: -163.4856
 CYCLE:   155 TIME:   0.094 TIME LEFT:  2.00D  GRAD.:     2.768 HEAT: -163.4909
 CYCLE:   156 TIME:   0.098 TIME LEFT:  2.00D  GRAD.:     2.361 HEAT: -163.5015
 CYCLE:   157 TIME:   0.098 TIME LEFT:  2.00D  GRAD.:     2.100 HEAT: -163.5115
 CYCLE:   158 TIME:   0.102 TIME LEFT:  2.00D  GRAD.:     2.801 HEAT: -163.5246
 CYCLE:   159 TIME:   0.098 TIME LEFT:  2.00D  GRAD.:     4.209 HEAT: -163.5364
 CYCLE:   160 TIME:   0.094 TIME LEFT:  2.00D  GRAD.:     4.796 HEAT: -163.5402
 CYCLE:   161 TIME:   0.098 TIME LEFT:  2.00D  GRAD.:     4.725 HEAT: -163.5493
 CYCLE:   162 TIME:   0.098 TIME LEFT:  2.00D  GRAD.:     3.251 HEAT: -163.5586
 CYCLE:   163 TIME:   0.098 TIME LEFT:  2.00D  GRAD.:     3.017 HEAT: -163.5704
 CYCLE:   164 TIME:   0.098 TIME LEFT:  2.00D  GRAD.:     2.632 HEAT: -163.5835
 CYCLE:   165 TIME:   0.078 TIME LEFT:  2.00D  GRAD.:     1.808 HEAT: -163.5949
 CYCLE:   166 TIME:   0.102 TIME LEFT:  2.00D  GRAD.:     1.426 HEAT: -163.6040
 CYCLE:   167 TIME:   0.289 TIME LEFT:  2.00D  GRAD.:     5.555 HEAT: -163.6126
 CYCLE:   168 TIME:   0.094 TIME LEFT:  2.00D  GRAD.:     3.565 HEAT: -163.6238
 CYCLE:   169 TIME:   0.094 TIME LEFT:  2.00D  GRAD.:     2.388 HEAT: -163.6388
 CYCLE:   170 TIME:   0.098 TIME LEFT:  2.00D  GRAD.:     2.297 HEAT: -163.6470
 CYCLE:   171 TIME:   0.098 TIME LEFT:  2.00D  GRAD.:     3.084 HEAT: -163.6589
 CYCLE:   172 TIME:   0.102 TIME LEFT:  2.00D  GRAD.:     5.186 HEAT: -163.6717
 CYCLE:   173 TIME:   0.098 TIME LEFT:  2.00D  GRAD.:     2.728 HEAT: -163.6819
 CYCLE:   174 TIME:   0.098 TIME LEFT:  2.00D  GRAD.:     1.669 HEAT: -163.6902
 CYCLE:   175 TIME:   0.102 TIME LEFT:  2.00D  GRAD.:     6.049 HEAT: -163.6965
 CYCLE:   176 TIME:   0.094 TIME LEFT:  2.00D  GRAD.:     3.167 HEAT: -163.7033
 CYCLE:   177 TIME:   0.098 TIME LEFT:  2.00D  GRAD.:     3.509 HEAT: -163.7087
 CYCLE:   178 TIME:   0.094 TIME LEFT:  2.00D  GRAD.:     1.682 HEAT: -163.7135
 CYCLE:   179 TIME:   0.102 TIME LEFT:  2.00D  GRAD.:     2.832 HEAT: -163.7184
 CYCLE:   180 TIME:   0.094 TIME LEFT:  2.00D  GRAD.:     2.908 HEAT: -163.7260
 CYCLE:   181 TIME:   0.098 TIME LEFT:  2.00D  GRAD.:     1.722 HEAT: -163.7334
 CYCLE:   182 TIME:   0.102 TIME LEFT:  2.00D  GRAD.:     2.215 HEAT: -163.7388
 CYCLE:   183 TIME:   0.094 TIME LEFT:  2.00D  GRAD.:     2.668 HEAT: -163.7429
 CYCLE:   184 TIME:   0.094 TIME LEFT:  2.00D  GRAD.:     1.868 HEAT: -163.7464
 CYCLE:   185 TIME:   0.098 TIME LEFT:  2.00D  GRAD.:     1.338 HEAT: -163.7505
 CYCLE:   186 TIME:   0.105 TIME LEFT:  2.00D  GRAD.:     2.464 HEAT: -163.7569
 CYCLE:   187 TIME:   0.098 TIME LEFT:  2.00D  GRAD.:     1.320 HEAT: -163.7630
 CYCLE:   188 TIME:   0.105 TIME LEFT:  2.00D  GRAD.:     1.507 HEAT: -163.7688
 CYCLE:   189 TIME:   0.105 TIME LEFT:  2.00D  GRAD.:     2.137 HEAT: -163.7747
 CYCLE:   190 TIME:   0.094 TIME LEFT:  2.00D  GRAD.:     1.208 HEAT: -163.7770
 CYCLE:   191 TIME:   0.105 TIME LEFT:  2.00D  GRAD.:     1.778 HEAT: -163.7800
 CYCLE:   192 TIME:   0.098 TIME LEFT:  2.00D  GRAD.:     1.352 HEAT: -163.7833
 CYCLE:   193 TIME:   0.105 TIME LEFT:  2.00D  GRAD.:     1.144 HEAT: -163.7863
 CYCLE:   194 TIME:   0.098 TIME LEFT:  2.00D  GRAD.:     1.026 HEAT: -163.7883
 CYCLE:   195 TIME:   0.102 TIME LEFT:  2.00D  GRAD.:     1.014 HEAT: -163.7907
 CYCLE:   196 TIME:   0.102 TIME LEFT:  2.00D  GRAD.:     1.066 HEAT: -163.7933
 CYCLE:   197 TIME:   0.102 TIME LEFT:  2.00D  GRAD.:     1.385 HEAT: -163.7956
 CYCLE:   198 TIME:   0.098 TIME LEFT:  2.00D  GRAD.:     1.918 HEAT: -163.7989
 CYCLE:   199 TIME:   0.102 TIME LEFT:  2.00D  GRAD.:     1.400 HEAT: -163.8019
 CYCLE:   200 TIME:   0.102 TIME LEFT:  2.00D  GRAD.:     1.238 HEAT: -163.8057
 CYCLE:   201 TIME:   0.109 TIME LEFT:  2.00D  GRAD.:     2.087 HEAT: -163.8115
 CYCLE:   202 TIME:   0.098 TIME LEFT:  2.00D  GRAD.:     1.990 HEAT: -163.8143
 CYCLE:   203 TIME:   0.098 TIME LEFT:  2.00D  GRAD.:     1.326 HEAT: -163.8164
 CYCLE:   204 TIME:   0.098 TIME LEFT:  2.00D  GRAD.:     0.803 HEAT: -163.8187

     GRADIENT =  0.80265  IS LESS THAN CUTOFF =  1.00000



 -------------------------------------------------------------------------------
 EF PM7 XYZ HESSIAN QUARTET UHF CHARGE=-2
 1004_C_9_4



     GEOMETRY OPTIMISED USING EIGENVECTOR FOLLOWING (EF).     
     SCF FIELD WAS ACHIEVED                                   


                              PM7 CALCULATION
                                                       MOPAC2016 (Version: 16.299L)
                                                       Thu Nov 10 15:55:53 2016
                                                       No. of days remaining = 350




          FINAL HEAT OF FORMATION =       -163.81871 KCAL/MOL =    -685.41748 KJ/MOL


          TOTAL ENERGY            =      -5907.09505 EV
          ELECTRONIC ENERGY       =     -57251.18835 EV  POINT GROUP:     C1  
          CORE-CORE REPULSION     =      51344.09330 EV
          COSMO AREA              =        493.40 SQUARE ANGSTROMS
          COSMO VOLUME            =        607.21 CUBIC ANGSTROMS

          GRADIENT NORM           =          0.80265
          IONIZATION POTENTIAL    =          0.529016 EV
          ALPHA SOMO LUMO (EV)    =         -1.492  5.195
          BETA  SOMO LUMO (EV)    =         -0.529  3.567
          NO. OF ALPHA ELECTRONS  =         96
          NO. OF BETA  ELECTRONS  =         93
          MOLECULAR WEIGHT        =        525.5465

          MOLECULAR DIMENSIONS (Angstroms)

            Atom       Atom       Distance
            H    46    H    22    17.17309
            H    61    N    53     9.40394
            H    25    H    49     5.97888


          SCF CALCULATIONS        =        252
 
          WALL-CLOCK TIME         =         20.184 SECONDS
          COMPUTATION TIME        =  1 MINUTE AND 17.556 SECONDS




   ATOM   CHEMICAL          X               Y               Z
  NUMBER   SYMBOL      (ANGSTROMS)     (ANGSTROMS)     (ANGSTROMS)
 
     1      Cr          0.08224980  *   0.07411037  *   0.12929600  *
     2       O          0.10474036  *   1.99572319  *   0.20867437  *
     3       C          1.33320591  *   2.44130585  *   0.11816095  *
     4       C          2.38855937  *   1.43128738  *   0.09237038  *
     5       C          3.70959426  *   1.81355915  *  -0.00773137  *
     6       C          4.03420236  *   3.19242309  *  -0.08278518  *
     7       C          5.50034031  *   3.55886307  *  -0.19887357  *
     8       C          6.24683749  *   3.05254641  *   1.05375897  *
     9       C          6.08982474  *   2.89789560  *  -1.46396067  *
    10       C          5.74121153  *   5.08078900  *  -0.31106597  *
    11       C          3.03366483  *   4.14095337  *  -0.04788856  *
    12       C          1.67084548  *   3.77694656  *   0.05342140  *
    13       O          1.99548350  *   0.18192398  *   0.16970851  *
    14       H          4.47964924  *   1.05646380  *  -0.02194176  *
    15       H          5.80803513  *   3.48904221  *   1.95761104  *
    16       H          7.30603302  *   3.30103228  *   1.02346708  *
    17       H          6.14786435  *   1.96435639  *   1.15075199  *
    18       H          5.53379025  *   3.21954425  *  -2.35136113  *
    19       H          5.99730704  *   1.80649305  *  -1.41127676  *
    20       H          7.14067561  *   3.14688547  *  -1.59998952  *
    21       H          5.23246625  *   5.48896331  *  -1.18973463  *
    22       H          6.80395378  *   5.30717451  *  -0.40119021  *
    23       H          5.35860512  *   5.60083031  *   0.57218260  *
    24       H          3.25799767  *   5.19749930  *  -0.09906912  *
    25       H          0.90202120  *   4.53321224  *   0.07635782  *
    26       O         -0.03888423  *  -2.01352313  *   0.08950857  *
    27       C         -1.23157905  *  -2.38577761  *   0.02402702  *
    28       C         -2.30946721  *  -1.35194132  *   0.03912877  *
    29       C         -3.66168432  *  -1.77906074  *  -0.04859524  *
    30       C         -3.97845995  *  -3.11769396  *  -0.14794878  *
    31       C         -5.44140533  *  -3.50792658  *  -0.24867597  *
    32       C         -6.17432049  *  -3.01995593  *   1.01730094  *
    33       C         -6.04912828  *  -2.83852769  *  -1.49844618  *
    34       C         -5.66557621  *  -5.02840034  *  -0.37134602  *
    35       C         -2.95101702  *  -4.09441888  *  -0.15545693  *
    36       C         -1.62223106  *  -3.75150019  *  -0.07148768  *
    37       O         -1.97919235  *  -0.14622090  *   0.12222243  *
    38       H         -4.42109457  *  -1.00426012  *  -0.02966106  *
    39       H         -5.72751103  *  -3.46120853  *   1.91508168  *
    40       H         -7.23257857  *  -3.27996689  *   0.99608492  *
    41       H         -6.09456212  *  -1.93066871  *   1.12555645  *
    42       H         -5.49750284  *  -3.13199116  *  -2.39899989  *
    43       H         -5.98954872  *  -1.74540318  *  -1.43050660  *
    44       H         -7.09571635  *  -3.11075694  *  -1.63279039  *
    45       H         -5.17852908  *  -5.42723905  *  -1.26702523  *
    46       H         -6.72938983  *  -5.26458435  *  -0.44084491  *
    47       H         -5.26585859  *  -5.55824027  *   0.49891333  *
    48       H         -3.21171842  *  -5.14387380  *  -0.22908542  *
    49       H         -0.83877493  *  -4.50014370  *  -0.08049258  *
    50       N         -0.03819791  *  -0.10753927  *   2.21978013  *
    51       C         -1.11952917  *   0.35277598  *   2.86794869  *
    52       C          1.06106433  *  -0.33669317  *   2.95778821  *
    53       N          2.02387478  *  -0.59420185  *   3.56899687  *
    54       N         -2.10983200  *   0.69869292  *   3.38606560  *
    55       C         -0.26413324  *  -0.26540992  *  -4.63792527  *
    56       C         -1.10458759  *   0.60049525  *  -3.90575978  *
    57       C         -0.94628537  *   0.73135394  *  -2.54612377  *
    58       N          0.01381080  *   0.02725030  *  -1.82702410  *
    59       C          0.85780898  *  -0.79493785  *  -2.56523662  *
    60       C          0.73980553  *  -0.95826030  *  -3.92471265  *
    61       H         -0.37590974  *  -0.38549768  *  -5.69461745  *
    62       H         -1.86909503  *   1.16142986  *  -4.42451252  *
    63       H         -1.56951306  *   1.40524094  *  -1.94800634  *
    64       H          1.63205295  *  -1.30532006  *  -1.98039066  *
    65       H          1.41371233  *  -1.61231964  *  -4.45905833  *

                             CARTESIAN COORDINATES

   1   Cr        0.082249799     0.074110375     0.129295998
   2    O        0.104740356     1.995723188     0.208674370
   3    C        1.333205912     2.441305850     0.118160950
   4    C        2.388559370     1.431287378     0.092370380
   5    C        3.709594257     1.813559150    -0.007731369
   6    C        4.034202364     3.192423088    -0.082785184
   7    C        5.500340309     3.558863074    -0.198873568
   8    C        6.246837486     3.052546413     1.053758972
   9    C        6.089824739     2.897895595    -1.463960668
  10    C        5.741211527     5.080788995    -0.311065973
  11    C        3.033664825     4.140953369    -0.047888565
  12    C        1.670845479     3.776946560     0.053421397
  13    O        1.995483501     0.181923978     0.169708515
  14    H        4.479649244     1.056463798    -0.021941762
  15    H        5.808035135     3.489042206     1.957611039
  16    H        7.306033018     3.301032284     1.023467081
  17    H        6.147864353     1.964356395     1.150751994
  18    H        5.533790253     3.219544247    -2.351361131
  19    H        5.997307044     1.806493051    -1.411276763
  20    H        7.140675612     3.146885471    -1.599989524
  21    H        5.232466255     5.488963307    -1.189734633
  22    H        6.803953776     5.307174515    -0.401190214
  23    H        5.358605122     5.600830305     0.572182605
  24    H        3.257997671     5.197499302    -0.099069118
  25    H        0.902021202     4.533212237     0.076357820
  26    O       -0.038884234    -2.013523131     0.089508570
  27    C       -1.231579051    -2.385777614     0.024027024
  28    C       -2.309467206    -1.351941316     0.039128770
  29    C       -3.661684317    -1.779060740    -0.048595240
  30    C       -3.978459953    -3.117693958    -0.147948781
  31    C       -5.441405328    -3.507926576    -0.248675966
  32    C       -6.174320487    -3.019955926     1.017300943
  33    C       -6.049128285    -2.838527694    -1.498446178
  34    C       -5.665576214    -5.028400343    -0.371346017
  35    C       -2.951017023    -4.094418876    -0.155456934
  36    C       -1.622231056    -3.751500191    -0.071487682
  37    O       -1.979192345    -0.146220898     0.122222433
  38    H       -4.421094574    -1.004260117    -0.029661057
  39    H       -5.727511034    -3.461208534     1.915081683
  40    H       -7.232578566    -3.279966890     0.996084925
  41    H       -6.094562125    -1.930668707     1.125556452
  42    H       -5.497502836    -3.131991159    -2.398999886
  43    H       -5.989548718    -1.745403177    -1.430506598
  44    H       -7.095716350    -3.110756944    -1.632790387
  45    H       -5.178529076    -5.427239055    -1.267025233
  46    H       -6.729389826    -5.264584355    -0.440844913
  47    H       -5.265858591    -5.558240274     0.498913327
  48    H       -3.211718418    -5.143873801    -0.229085425
  49    H       -0.838774928    -4.500143695    -0.080492578
  50    N       -0.038197909    -0.107539273     2.219780131
  51    C       -1.119529168     0.352775981     2.867948689
  52    C        1.061064332    -0.336693168     2.957788212
  53    N        2.023874781    -0.594201851     3.568996873
  54    N       -2.109831995     0.698692916     3.386065605
  55    C       -0.264133243    -0.265409919    -4.637925272
  56    C       -1.104587594     0.600495246    -3.905759775
  57    C       -0.946285369     0.731353942    -2.546123766
  58    N        0.013810802     0.027250304    -1.827024097
  59    C        0.857808982    -0.794937849    -2.565236622
  60    C        0.739805527    -0.958260296    -3.924712654
  61    H       -0.375909737    -0.385497678    -5.694617449
  62    H       -1.869095032     1.161429864    -4.424512521
  63    H       -1.569513061     1.405240937    -1.948006345
  64    H        1.632052947    -1.305320063    -1.980390664
  65    H        1.413712334    -1.612319644    -4.459058334


           Empirical Formula: C27 H29 N4 O4 Cr  =    65 atoms

    Hessian matrix from geometry optimization
  590.0055
   99.6230  569.4364
  -11.5401   -5.3029  457.5380
  -51.0295  101.7602    6.7780 1283.6153
  -18.0389 -225.8510   -9.2481  263.7696  525.3076
    0.3581   -3.1340  -31.8917  -75.0503  -20.4309  174.1739
    5.7018 -122.3845    6.7658-1014.1481 -208.6430   68.7867 1652.8119
  -13.2661 -123.4332   -9.6965 -324.2662 -148.5843   53.7723  321.6440 1427.3810
    6.5906   21.2190  -20.0302   57.0388   15.7916  -92.0762 -101.3335 -111.7937  371.8489
  -68.9113  -18.8801  -34.7201 -159.3478   20.4586   -0.3000 -222.3216  166.5013   38.7981 1465.0857
 -116.8745    6.6719    5.2422  167.6836   15.4903   12.3085   75.5578 -191.8142  -18.9337  267.8187
 1597.0175
   24.4261  -15.2398  -11.5588   -4.8403   16.6390   18.2454  -18.9090   17.4867 -119.7012  -73.5436
  -70.1365  369.2635
  -22.3089  -23.9519   -2.0545   44.4322   43.1136   -9.7676 -191.6327  -29.0223  -17.2327 -642.9082
 -160.6632   59.3867 1337.7803
  -11.2850  -51.4411   -8.0897   30.5053   36.0787   -3.5729  -15.4961   19.6043    8.0123  -55.2052
 -130.9282   34.3350  197.6350 1449.3961
    0.0301    6.5904  -22.9722   27.4795   14.6292   -5.8390   -9.3144    0.7702   30.0059   38.0913
    8.4007 -144.8761  -45.5476  -43.5823  322.3935
  -13.7224   37.0153  -14.1153   27.4118  -19.6196   -2.8822  -43.5317    1.2612   -5.9966  -50.1828
 -134.8626    8.7602 -161.6965 -177.8727   10.5032 1266.7119
   20.3009   10.3498   12.2579  -13.7898  -31.2021   26.2225   71.8973  -44.6741  -29.7737 -121.0054
  -55.8726  -36.7118 -135.6029 -776.6227   44.4772  -52.9052 1565.5839
  -22.6678  -13.2402   -6.4599    2.6256   -2.9049   -0.4548   13.8010    4.5011   -4.7952   -0.6705
    9.9981   22.8161    9.3020   25.6557 -137.7685  -21.7210  -61.5387  404.1701
  -30.0275  -19.2218   -1.8473    2.0187   22.2421   -9.8059   -8.1745    4.0035   -8.8094   10.0638
  -13.9464    3.9559  -38.1226  -54.5302   -5.4705 -337.6231  -49.3224    7.0126  979.6061
   -6.2343  -16.1603    2.8196  -13.4202    1.3126   -1.1765   19.5232   15.5525    6.1892   10.1707
  -14.0852    0.0235  -40.8315  -78.2387   -6.2531  -65.1435  -99.4956    6.4491   22.3181  955.6919
   -1.7010   -2.8727   -1.9012    4.8072    5.0135  -13.5959  -20.2481   -6.1759   -4.0159    9.8508
   -8.9927    8.7985   11.6496    9.5117    5.1394   -3.4236   10.3084 -128.3888    1.2824   22.9226
  970.2125
  -23.2883    0.0856   13.3955   -2.2535   -0.7898   11.6854  -22.8691   -5.8914   -3.6315  -29.8967
   14.2645    4.7223   -6.1630    9.8411   11.6226  -49.9372   19.3825  -42.2815 -183.0036   38.4176
  -58.7461  838.0980
   -4.0501  -46.2916   -2.7293    6.4879   -4.3163    1.8215    2.3255  -37.2221    4.0677   13.8632
   10.8380   -4.9726   10.7614  -21.7622   -0.6010   -3.5438  -33.6770  -10.8958   50.8310 -175.8896
   33.3579   26.2671  801.5526
   18.0859   19.0273  -37.3779   -2.3511  -18.1503   -2.5170   11.4631    1.5598  -15.6708   11.2053
   -9.6499   -9.8839  -17.1000   -5.6232  -18.3712  -25.9155  -17.0183  -10.8256  -58.6022   40.2165
 -307.8398    8.4601   -3.4351  797.9406
  -39.5695   -9.3570  -11.5113  -18.9402   -5.5683    7.3071   -7.5758   10.3529   -0.0157    0.5650
   -2.7661   -3.6252  -20.5588   11.9440  -10.2070  -89.5272   11.2209   46.1489 -170.1000   61.0993
   73.8346  -24.9130   -4.5147  -26.4719  870.0627
   -3.9867  -28.9319    3.1453   13.6414   -6.5048   -3.0738    0.0046  -23.0831   -6.1217    6.2142
   15.4242   -0.4952    8.1016  -17.8703   15.6424   32.1042  -41.0967    3.7038   41.6890 -164.5205
  -71.0387   -1.7026  -47.0696    3.5513   21.2130  785.4501
    5.2861    1.4916  -23.3318  -15.4481  -10.0303    5.3775    1.2685   12.4595   -7.4627  -15.0262
   13.5056  -22.5597    5.5484    4.7026  -25.2325   35.2268    7.8256  -16.1087   66.6100  -67.2872
 -293.1441   13.3306    8.5193 -113.7737  -13.0568    2.9210  792.1799
  -32.2380   -3.4527    9.5823  -27.3245    4.8565   -8.1056  -13.7216   -9.2771    7.7460  -18.9756
   24.9601    3.7417  -35.8033   22.2574   -5.5444  -42.2179  -29.6033   -1.8739 -130.6130   -6.6393
    4.3492  -31.1991   54.0026    0.6258   -9.3068   49.3643    4.2357  807.2803
    5.0346  -25.5440   -1.7455   -7.1881  -12.4939   -2.0596   16.4832   -8.9590    0.8256    1.4345
    3.0279    4.4407    6.3952   -5.3277   -6.3306  -27.0181  -55.8343    5.8924  -29.1629 -304.5535
   -5.2437   25.6145  -98.9308   48.6842   31.1428 -110.7834  -41.8256   -0.4501  793.7671
   -3.9406   -4.7552  -36.1959   -5.9557   -4.1601  -20.1365    2.5035    5.5871  -23.4173    9.5508
   -8.6606  -35.3964   -8.8885    2.8164  -27.4777   -4.4862   15.7809  -24.1431   12.2833  -10.6743
 -184.2233   10.2104   67.8128  -81.7347  -15.0148  -56.5804  -59.3307   -6.3614    8.1539  819.6359
  -23.2370  -21.3966   17.1608   35.0641   17.4302   15.7090  -10.5649  -92.8800    3.8013   -9.5631
   54.3932  -22.9919   -2.2577  152.0083   -5.2312 -428.8869  149.8893   20.4122  -70.3651   52.7910
   -3.6438  -25.4734    7.6819  -12.0802  -16.6459   -4.6972   -4.7157  -51.7313    7.1858   10.7990
 1559.2687
   -9.3875   -9.6067   -4.9317   65.3965    9.4504  -10.0879 -165.4294  -85.2471   22.7682   -1.4045
  -30.7479   10.8453   68.5104 -129.5605  -15.6309  320.5362 -430.2449   23.9273   15.3149  -21.8268
   -0.8397   -3.7508  -33.0863   12.6146   -2.5839  -21.0177   -3.1672   -4.0079  -25.5777  -14.9924
   -3.4354 1183.5781
   23.5996   -2.1958  -21.9746   -3.0968    9.2961   -0.6368   12.1497  -37.3338   28.5110  -23.6478
   18.5784    5.7011    1.5053  -24.8647   43.4943    9.6437   35.1232 -169.7337  -17.4699   -8.6162
   -0.2227    2.2629    2.1127  -14.2047  -12.4232   -3.8329  -13.1838    3.9025    5.4065  -31.9027
  -33.3011  -35.1050  351.6148
  -21.7881   10.5537   -5.2939 -145.4840 -121.9774   -4.5280 -137.0289  -55.1643   10.5831    4.4098
  -20.0395   11.6368    5.4740  -75.9133   17.0117 -111.7802  138.7115  -31.5135  -23.8452  -12.8393
    2.5789  -26.1764   32.5589   27.2395  -23.0331   26.2966    5.2169  -31.9772   21.8708    3.4941
 -840.5754 -204.0162   21.3355 1524.6727
   -1.9813   24.4736    2.2182 -146.3321  -89.6747  -30.7355 -164.0827 -587.2728   97.1943   46.5983
 -161.9417   -2.1539   91.1004  -14.3354   -4.3096   46.5548   10.9031  -17.2563   19.7097  -24.8422
    6.7066    7.8888   -5.5429   -6.2570   -1.1658  -17.6436    6.8097   28.9288   -7.2692   -0.7236
 -161.8595 -154.2016   42.2344  199.9323 1246.0935
  -20.6723  -14.9783  -11.7898   11.1845   23.4361   14.6007   16.7786   57.1610 -142.3512   -8.4438
   -0.6386   14.8823    6.1556    4.0270  -10.7230    7.0344   -3.8021   47.2039   14.0057    2.9853
   10.3442    5.0189    0.1754   -4.6001   -6.4254   -1.6645  -27.3161  -10.1410   -8.8485  -42.1928
    0.1996    8.8665 -135.0620  -37.0295  -89.2043  315.9118
 -241.1674  -27.5698    7.2799    8.6690    6.4827  -14.4924   30.5430   18.6294    3.7149 -159.8650
 -185.4598    3.2543  -63.2317  -97.3843   16.3186   26.7021  -22.9754    3.1155    8.5337    3.7120
   -1.3583   -5.3191   -3.6783   11.4948  -13.2486   -2.3236   -0.8247  -10.4599    0.5683   -2.4468
   -8.2159   24.4641   -1.6271    1.3300   15.6410    3.8897  524.3095
   71.2710  -50.9855   -0.7928 -123.3009   20.9288   -5.3835  159.1662 -154.5455   18.4419 -292.0556
 -994.9896   53.3116 -104.3013 -134.8522    8.0089   29.1822   50.2661  -11.6023   -2.5677   -5.5402
    1.3056   11.3708  -26.2524    0.3163   -0.5546  -22.0109    0.1771   14.2278  -16.4162    2.6942
  -34.5966   -2.0652   12.9868   23.1475   24.5980    1.3063  258.7311 1232.4735
  -12.1641    7.7307  -48.3636   11.2989  -12.6326    5.7550    3.2500   -9.9263   24.4661   21.7145
   51.7906  -86.8205  -12.1154   -9.6694   27.3718   -0.6000   31.7323   -3.8552   -4.5275    9.0839
  -16.1331    7.1644   -2.7359   -6.9170    1.3685   12.9634  -19.0036   -2.8911    3.4347  -13.4787
   17.4979  -17.7217    5.5946   -2.4850   -3.1296   -1.5008  -15.3373  -53.5495  179.0920
    7.2764   -6.3226    0.5221   18.8790  -10.7125   -5.9711   28.9484   -7.0317    9.4074  -74.1019
   27.3220    0.3495 -242.9268  177.4114   -8.2205   21.4394    2.5593    2.9278   -5.6795  -26.2204
    1.6467   -1.5799  -10.0741    5.3230   -1.8008  -14.6827    1.2751    8.5055   -2.5807    5.5961
   20.5954  -19.9496    3.6744    3.3253   -8.9761  -11.8523   15.7417  -10.8574   -1.2139  379.0493
  -10.9953    5.8482   -6.8885   -7.3718    5.9540    1.6249  -29.7489    6.0011   -2.7440    4.7414
   26.7411   -5.4374  189.5570 -232.2893   11.0948   12.5007  -64.2730    2.1340    0.3041   23.9310
   -2.7323   -2.5100    4.8752  -10.2392    0.6254    8.1625    6.2712  -13.2683   10.0589   -4.0991
  -31.1435   24.4650    2.7115   -5.4787    0.8346    1.6857    3.6452    2.7994   -7.7308 -178.5904
  373.6603
    7.1563    2.0157    1.8627   -4.7587  -10.2712    7.1283    9.5309   -5.2437    3.3624    7.4556
    3.4191   17.1404   -2.6206   -2.4883  -70.8951   -5.0579   13.3647    2.6191    0.1001    3.5840
   -7.9272    3.9792   -3.5628  -12.1595    4.5013    0.7779   -9.1218    1.6023    1.7011   -9.5831
    3.0022    0.9556   10.1206   -0.5197    5.3571   -0.5104   -7.2127    0.3141   -7.0548    5.3628
   -5.3471  116.8429
    0.4660    0.4315  -10.2989    0.7137   -9.3752    8.9657    2.9309   -1.5147    3.0244    7.4608
    0.8258   -8.3450   -4.3484    7.9884  -11.1390    2.0840   -6.7075   -9.2491   26.8244  -13.0266
  -21.7970 -142.8021   53.1477  148.7029   -3.9432    4.5538   -8.2717   -4.7773  -13.5763   -9.0041
   -2.3844    0.7429  -19.1756    7.4993   -0.7575   -5.7000    8.1034   -5.6743   -4.3198    3.2533
    0.4748   -6.7593  247.8484
   -7.0747   -3.0713    8.2895  -11.1166    4.2804   -5.6933   -2.4061    8.2718   -4.7900   -6.3107
   -1.7487    8.2950    1.0115   -6.7184    7.3809   -5.0687    5.9415   -4.8097  -15.7491   20.0943
   22.4115   53.2892  -92.6255 -102.1037    6.3719  -12.3457    6.4817    0.5260    5.4158    3.9897
   -4.8864   -4.0877    3.6634   -8.1147    3.2752   -5.4197   -4.8094   -0.6919   10.1955  -10.0827
    3.8079    6.4845  -66.7027  226.4983
   -7.2474   -7.3405   25.0727    2.2925    7.1567    7.0199    0.4531    5.6225    0.5582  -16.5916
    3.0918   12.9298    9.6950   -7.2970    1.2727  -10.4204   14.0047   19.9625  -13.8910   15.2806
  -35.3566  135.2450  -91.2721 -289.3520   -1.2238    8.7887   26.4549   -6.6448   13.7403   19.1344
   -2.3587   -4.1697    6.8671  -16.0596    0.7548    4.4371   -9.5582    2.6613    8.9950   -2.7107
    4.0909   -1.3780 -140.8855  101.1926  446.5326
   10.7434    3.9376    8.3662  -27.5981  -14.2009    5.7030   30.3027    4.1861    4.6098   20.1661
    5.8317    3.3238   -5.2634  -10.1259   -3.7180   -1.9545    8.7164   16.5620  -26.2185   -0.0194
  -44.4322 -398.9902  -95.7830  -38.3186   27.9450    0.6385   -2.1520   15.1511    8.6938    2.6617
    8.1116   -4.8414   14.6284   22.5966    8.7813  -16.3605    3.4831   -1.6943   -2.3132    3.9239
   -6.5014   -4.8885    7.1292   -1.3547    9.2418  528.7497
   -3.2063    2.3954    4.1157   -6.3542    0.8238   -3.3189    2.9577    8.8382    1.3552    2.3609
   -1.8608    4.5914    0.0476   -2.9527    2.1062    1.2684   -1.5064    5.9839   13.2884   13.4984
   -1.8749  -98.6550  -83.6329  -17.7925    9.7223  -11.7844   -2.7897    6.1733   -1.5936   -6.2559
    1.3374   -1.0480    4.4698    3.2292    3.5349    6.4024    0.1030   -2.9712    6.1994   -7.5369
    2.2593   -1.0810   -2.3327    0.8393    9.6971   77.8875  197.3188
   -2.2682    1.3094    0.4769   -2.3512    3.4660   -4.8026    3.5656    5.0023    0.4156   -0.2314
    5.6142    1.3058   -1.4218   -0.5658   -1.7100   11.0708    3.0086   13.3422  -43.1046   -4.6503
   -6.5742  -14.2243   -7.6640  -55.5126   -0.4571   -3.9332   -3.9744   -0.3519   -6.9403   -8.8210
   10.5310   -6.0865    1.3001    1.3220   -5.3567    2.3130    1.2371    3.5011    6.3878   -3.8541
   -2.5004   -3.7105   12.7109   12.0808   18.3670   37.4611    4.6710  188.1969
   -9.0741    0.8210    0.6496   -7.4940    1.0729    5.6326    3.8258    7.9356    8.0008    0.6633
    1.5074    0.7351   -4.2638    4.8561   -1.4386   -0.0814    2.8140   -0.1719   12.3198   22.8308
   -7.3770  -57.4605  -25.0773   -3.3360    1.2662   -2.2031   -1.5235   -4.3598  -10.9818   -3.9877
   -0.6971    1.1415   -3.5840   -1.5433    4.2062    6.3885    5.4499   -5.4070    4.5927   -1.4970
    1.6553   -6.3807   -8.3755   -8.3414  -10.3187   10.3686  -16.0864    9.8779  175.5192
   -1.8139   18.5502   -9.5887    0.9997   16.4854   -7.0547  -17.9637   29.7123   -5.9797   -6.2243
    2.9068   -2.4913   -2.9892   21.0540    1.3129   11.8880   11.6268   -2.0305    5.5619   -7.6078
   42.0956  -27.3850 -404.7526    0.8424   -9.5995   29.4293   11.7258  -13.5282   14.6115  -24.8726
  -12.6441   18.8835  -16.2534  -17.8982  -20.6736    4.0408    2.9609   16.2084    2.8643   -6.2997
    3.2025    3.9761   -5.0386   12.3173   -9.7597  -20.6489   15.9761    4.8065    5.6088  552.1062
   -4.6720    0.8970    1.9967    3.1829    2.4329   -5.7130   -0.5199   -0.6273    2.3889    0.0092
    4.2881   -1.0476   -4.1493   -1.5506   -2.0695    3.3224   -1.6595    4.3049   -6.2234   38.0271
   -1.5393    0.8955   -2.5023  -52.1509    3.5838   -6.4150   -4.8015   -3.8623  -16.1986   -8.1187
    8.1917   -2.8381   -5.9277   -5.0742    0.0535   -3.0028    1.4873    0.7630   10.2592   -4.7284
    1.6428   -4.8035  -17.2178    1.2571   22.3695    3.2885   -1.4886    2.9431   -0.6680  -14.3876
  196.6829
    1.4197    3.1944    3.4523    8.1918   -4.3227    6.7895   -3.6900    1.3401    2.1353    0.4686
    1.7329    4.4814   -2.6413    0.6930   23.2998   14.2876   -3.3416    5.4872   19.7253  -17.2275
    9.4682    1.7898    3.5768   13.4842 -131.6221   54.8650 -127.7149   -7.7364  -20.9712    4.5747
   -0.5652    6.3813   15.8556   -3.6972   -1.7384    5.7322    9.6173    2.5073   -0.3896   -0.1374
    3.3599   20.5035    9.8141    4.7447    6.0906   -2.3082   -6.6937    0.1868   -0.0992    9.2858
    9.3138  231.1990
   -8.2273   -0.3415   -5.7711   -0.4150    4.1274   -9.9670   -1.3522    4.8994   -0.2724   -6.7290
    2.3601   -1.5270    2.0282    0.2607  -10.8228  -11.1414    9.8528    4.2749   -5.8273   19.9736
  -12.3095    1.4350   -8.5903  -12.1419   52.8226  -98.9472  105.4074    2.9038   10.1814   -3.2339
   -0.7009   -3.0929   -2.8862   -6.7152   -1.8062   -2.7333   -4.9117    0.2161   11.1945   -5.5320
    4.4683   -8.0055   10.4786    2.2746   -9.1506    1.0749   -8.3930  -15.8165   -4.7948   -3.5915
   -2.0237  -64.6103  222.6144
    9.5502    4.6398   15.1991   14.8537    2.1533    8.1209    1.5192    1.9828    4.6298   10.8479
    0.5710    7.7255   -7.7720  -10.3273   17.5711   18.2544   -9.4348   11.4862   -2.6029  -10.6507
  -54.9170   11.8670  -12.4489   35.2646 -124.2134  108.1780 -291.1573   -6.2123  -25.3507   12.0432
    1.9732    4.5965    9.6264   -0.1826  -11.3451   12.1096    6.9536    1.9578   15.8536   -4.2982
    4.1300   -0.8320  -15.8006   -1.2720   29.3286   -1.4476   -8.6161   12.0202   -4.9762   -1.0531
    0.9238  134.2943 -102.5362  460.3700
    1.5739   -1.4354   -1.2589    1.8420   -5.6312    4.5510   -0.3046    1.8373   -1.5567   -2.8737
    1.7819   -0.1677   -3.7540    1.7959    7.2146    2.5858    7.7247   -0.2123    8.6228   10.8563
    5.0793   -1.6151   10.2002   -1.9646  -62.4561  -37.8588    0.4930   -6.2880   -6.2398    1.4936
    1.3546    0.6790    3.2679   -4.7491   -3.8045   -6.2485    3.9672    2.5627    0.1972    4.5965
    2.6336   12.4684   -3.3450   -0.1144   -0.0982   -2.7174   12.5398    4.1893   10.4642    0.8534
    1.0305  -16.7556   -4.9762   10.4801  169.4880
    4.8980   13.8502    1.3911   -3.9570    3.1583    9.8682  -21.8583   25.8169    1.1059    3.7852
   -4.3686   -0.0587   -8.9971   -0.8543    5.2130   -6.8518   22.7847   -2.9049   -4.0305  -30.1171
  -32.0355    1.8534   29.5306   -9.4878  -41.1856 -384.9877    4.0099   -7.7886   22.4512   19.6092
  -10.1186   16.8159   15.2738  -10.8296   -4.5956    2.5977    7.8449   25.4649   -1.8463   -2.0878
    3.3761    0.2650    3.5848   -5.8232   -0.4919  -13.5280   -7.0322    3.3445   -1.5988   18.8646
   -2.0440   -4.5333   13.9634    9.9567   20.0767  548.8608
    5.1384   -5.9899    1.5250    2.1542    1.7194    8.8540    3.4966   -2.8383   -2.3247   -0.8316
   -4.3960    3.1151    5.9584    3.5465   -6.6115   -5.0148   -0.9768    3.1305    3.1019  -32.6503
   -2.1196   -3.1458    2.0822   -0.9784   -0.3380    1.9286  -47.0127   -0.0490   15.2449  -13.9628
   -7.0913   -0.4698   -6.3211    1.9549   -5.4984    2.7693   -5.0711   -3.1560   -8.6586    4.0524
   -0.9811    5.1097  -13.2242    1.7039    6.1064   -0.7994    2.9347    6.2773   -2.6989   -1.8172
   -2.6713   13.8855    7.1005   17.4728    1.5723   15.3537  191.5980
   14.3347   -1.3613    3.6992   -1.8071   -2.0214  -11.2933   25.9117  -11.2661    4.7623   -5.3118
   28.7487    1.8751    9.1768   10.2823   -9.0757   16.6257    1.5516    9.8751  -18.1888    2.5051
   36.6310   25.9288   -5.2995   10.5799 -429.7301  -87.2395   14.5478    6.2757    8.5291   -5.4932
   20.6640   -7.0628  -18.0453    3.5609   -2.8885    7.1330    2.3415   -6.4418   -6.2044   12.0025
  -10.7785   17.9443    2.5437    8.7151   -4.0880    6.4474    2.5196   -3.2268   -0.6576   -8.0823
    3.7683    2.3058  -10.2051    0.9223    5.8497  -17.1912    2.5212  532.4244
    6.1128   -3.4483    0.1836    7.4843    2.1479   -4.6349    1.2667   -3.2536   -1.9131   -1.2621
    8.7402    0.4750    3.1153   -5.8778   -5.1611   -5.2837    8.9085   -1.0498   13.8390   11.3691
   -3.2345    6.0077   -8.5542    1.2558  -90.9689  -75.0979    6.6257    3.9678    2.2962    7.4123
    6.4490   -3.8489   -0.9923   -2.0168   -9.1188   -6.5495   -2.9555    0.2895    9.6798    0.9576
    2.9341   -0.1869   -5.3680   -0.6165    1.7359    0.6043    8.3830    0.3870    7.6445   -0.8420
   -3.6073  -10.1770   -3.9119   -8.7695  -17.7929   14.8847    8.0456   63.4312  191.6548
    3.6462    0.1469   -0.0578   10.2262    3.4732    6.3892   -2.7720    3.4220   -1.1749    2.7000
   -0.1811    4.1205   -2.5240    1.9750    2.4071   -6.7317    5.1349   -0.6189   38.0231    1.9764
   -1.3672   -2.5717   -0.4087   -4.9401    0.2071   -0.8807  -51.7235   -3.7602    6.9965   -8.4115
    1.3226    1.4357    4.5223   -6.3700   -6.3296    3.1831   -3.8356   -4.6854   -0.6846    3.7200
    3.9642    7.2029    0.5645   10.6586    5.4912    2.8966   -5.2565   -3.7822   -5.8444   -1.1169
    1.6770  -11.2457  -15.5231   22.2301  -10.9845   -2.0836    4.8054  -28.6082   -8.4623  185.6506
    0.3813    6.6181    0.0771    3.3107   -0.6593    2.1394    7.1146   -4.4261   -0.0872    7.3132
   -0.2597    6.9863   -3.2405   -3.1606    9.0144    7.4746   -6.4601    6.1547   14.3679    8.7520
   10.7329   -0.1449   -7.3833   10.0096   -2.6690    4.0743    9.3730 -107.1808   50.8717 -110.8080
    5.8118   -3.6564    5.0156   -1.3010   -3.1641    2.1713   -2.5434   -3.4334   14.5269   -1.1139
   -6.8722   11.5133   13.1228   -8.3374   -6.5522   -4.1074  -11.1794    0.3815    0.0911   -7.4627
    6.6419    9.6228  -10.2900   16.4137    8.7494   -0.6251    0.8959   -4.4806   -1.0899    0.6301
  221.4292
   -4.1106   -7.1446   -1.8162   -6.6407    5.0308   -6.0627   -5.8889    5.3021  -13.3658   -8.9031
   -7.9829   -0.7208    5.2861    7.2212   -4.1016   -6.0646    4.4502  -10.3583   11.1354  -40.1461
   27.2641  -11.0765   12.8106  -31.9648   -8.2890    6.5280   -5.1486   58.2145 -111.3253  118.2273
  -14.4275    1.2955   -6.2903    0.3340    2.8686   -2.9987   -1.5240    7.8271  -11.4153   -2.5717
   -0.4632    5.8897    0.0652   -4.1278   -3.0396   -5.3817   -4.2857   -3.3210   -2.7701   19.3661
   -5.4028   -4.7884    5.0954  -11.1939    0.1561    8.9415   -4.8653    1.3447    5.7365    1.1862
  -62.9656  262.7311
   10.1533    6.7976    5.6027    1.4171   -3.3736   16.2691   10.7032    0.2218    8.8405   17.4425
   12.1853    9.0579   -5.6172   -7.8943    3.1179    9.9168  -13.4163   18.5216   -7.1862   31.1737
   15.1514    4.4468  -31.1331   14.9986    5.2484   -3.0516   17.9570 -113.0241  109.2062 -307.7617
   14.2111   -1.1989    4.4725    0.0646  -19.3369   19.6991   -5.2249  -15.3996    4.8468   -2.5544
   -6.9284    2.7904   -0.5185  -12.8095   -2.6897   -0.3060   -6.5501   10.4670    1.1321  -17.9837
    2.0376   16.6002    0.6060   14.8214    3.8104   12.6916  -13.8845   -4.2842   -4.7591   -2.5983
  128.3590 -137.7589  427.6742
   12.8375   -3.2977    2.4797   -1.6672   -1.1620   -7.8797   19.5350    8.3003   -3.9945   -6.5936
   -6.8327   -2.9075   18.2148    4.0358    3.8475   15.0397   -3.6238    4.4467   -6.5799  -58.9373
   -1.3499   15.7670   -2.9924   12.0844    8.9614   -6.3648  -20.3926 -398.7568  -73.1383   -4.6263
   23.0346    5.7827   -0.4466   25.9176   -3.3723   -2.4068   11.3759    3.1030    6.5742   -1.5243
    6.7165    1.8698   -0.4206    2.8112   10.2708   13.3851   -1.2241   -0.0294   -1.7405   -9.7163
   -3.1267    1.0477   -0.9700   -1.1935    0.7003   -9.5213    8.3316   19.8220    2.5375    5.9041
   -2.7414   -1.0407    3.1731  509.5326
    3.1982   -4.7846   -4.4806   -5.4315   -1.6409    6.5912    1.7617    4.0735    2.9336    1.2461
    4.1035   -2.5282   10.4639    6.9589    2.3562    8.1924   -6.1596    6.8972  -52.0173  -28.1009
   -6.5445    6.2795   -5.9468   -1.9162   -4.8982   -1.0913    7.7674  -57.6931  -70.9381   -4.3770
   -5.6094    0.9363   -4.2761   11.5499  -11.2858    2.0904    4.5663   -0.8720   -9.7498   -4.8530
    2.5344    5.0348   -2.0160   -2.5281    2.6618    0.4739   -0.8897    2.1293   -1.6591   10.1211
    2.7210   -4.2912   -1.5101    6.3198   -2.2354   14.6522   -1.9838   -2.3367    3.6523    0.3419
   11.7343    9.4990   -9.7904   83.9566  202.3843
    2.2019    1.9658    1.7659    1.5149    1.8019    4.9509   -1.6821    1.1946   -0.1358    4.7452
   -1.2024    6.4797   -0.1224    4.9853    4.6133    3.1512   -1.1296    4.5042   -4.0576   -0.6572
   12.7336    2.9164   -8.0167   -6.6907   -3.8813    5.8236  -10.7106   -9.4805   -3.9330  -59.9530
    1.8463   -0.8666   -3.8312   -1.2340   -2.9273    2.8747   -1.4440   -1.6809   -1.6708    1.2416
   -1.1205   14.3696    4.2203    5.6108    0.6512    3.7765   -8.0031   -3.7200   -6.3773    2.1769
    1.5952   -5.0650   -0.1725    1.7299    6.5778    4.2417   -5.6959   -1.6623   10.5103   -8.4896
   -6.2794  -12.0189   25.1032    7.5947   -0.9563  172.7138
   -4.0342    0.3132   -9.1512   -8.9370   -9.8437   -6.9983    9.8396   -0.2853   -8.0250   10.2179
   -6.5089   -8.4490   -9.1626   -5.2223  -12.2313    3.3259   -4.1392  -12.5331   14.4328    3.8807
  -14.6672   -7.0551   -0.6273  -10.4839    0.4536  -12.1256   -6.2312 -129.1863   70.8058  119.4682
    9.8183  -10.6602   -3.9758    5.9921    4.4781   -8.7018   -1.7155   -0.3488    7.7438    0.8867
   -9.9258   -8.6026    1.7984  -15.4195  -11.3315   -1.3262   -0.8695    0.0108    2.4833   -8.6584
   -5.8537   16.3635   -3.8869   -2.6890    0.4892  -12.9758   -6.3945    9.7355   -9.7707    5.2868
    9.3327  -21.8512   -5.3642    8.1686   14.3119   14.4611  223.4356
   -0.9507   -2.8230    4.5512    6.2055   10.3782    3.9977   -5.7458    0.5333    0.5132  -12.3312
    0.7652    8.8566    9.7425    0.9772    4.8718   -5.5381    3.2073    5.7028   11.3995  -35.0990
  -27.4575   -4.4744    2.3646   14.8351   -9.1288   15.9823   29.5523   68.2942 -112.3111 -123.3411
  -22.2688    6.0731    6.0959   -1.2417    0.1509    7.1727    0.2658    5.3871    6.1653   -4.4965
    5.5398    0.0980   -3.6883    0.3180    6.5115   -2.7019   -1.7272   -0.6487   -2.4373    8.0586
   -1.1078    0.7502   -5.4143    5.7619   -0.4282   17.7864   10.1056   -7.4627   -4.3336    3.3643
  -20.4978   17.7450    3.0044   -2.3144   15.5390   10.8101  -74.5095  273.9749
   -2.0581   -3.3062   17.8440   -3.5209   15.9725    6.4607    0.5880    9.2712    2.8653  -26.8865
    1.3459   16.8396    5.7698    5.5983    7.3936  -11.1417   -2.2485   14.5172   -3.1182  -15.4428
   28.7604   -2.6152   -4.6796   15.8072   -6.5303   30.8641    0.3678  126.3790 -126.9309 -297.1838
  -19.2897   12.3670    8.1027  -11.3453    3.7831   19.4597   -1.7453    0.8515   -4.7148   -3.0731
    8.6237    3.2115  -14.4221   10.7215   18.3997    4.4553    4.9451   -1.3137   -3.1102   -1.1340
   -6.5369   -5.8998   14.6713   -6.8734   -3.6670    9.7104    0.3809    5.7297   10.2281    3.7931
    0.6385   -2.7522    4.3402    3.6125    8.8528   17.2097 -133.6687  141.4163  425.6815
   -0.7519    6.3071    2.5101    6.5206   15.4025    0.0911    2.7318    1.7690   -2.4132    7.9178
    2.0976    6.2216   -7.4235   -2.4798   -1.0518   10.4488   37.3132   -2.7298   -1.3067    1.0945
    0.5833   -3.5614   -0.4649    2.7045   -8.6307   -0.2498   -4.5685   -4.4445   -2.1155   -1.7404
  -75.3466  -85.6173    0.6822  -30.9497  -40.5087    5.2181   -4.6374    1.2158    0.5918   -1.1863
   -8.3040    0.9598   -6.4460    0.3757    1.3552    0.3557    2.6368   -1.0005   -2.9248   -3.4989
   -1.4125   -1.0493   -0.8882    0.1417   -2.4869   -0.0722   -0.6743    0.6320    0.9675    1.9147
    4.2466   -1.5682    5.2929   -4.7072   -6.4336    0.2518    5.1991   -2.4373   -5.0338  222.9356
   11.2864    0.5273   -4.3172  -20.2569   13.3603    0.0260   20.5910   29.1320    3.3931   10.3018
   16.3326    6.2912  -15.9900   19.1410   -6.1298   11.2140  -58.8488    8.7489    1.9820   14.0586
    3.4480    2.1399    4.8731  -16.6862   -2.5959    0.8488    8.5654   20.0282   14.4998    1.7434
  -99.5343 -389.9261   13.0397  -30.2802   -1.2404   -2.5967    6.9456   18.4668  -10.5306   -9.9445
   25.3863    0.4254   -7.0417    8.0221   10.7102   -1.5920    4.9505   -3.0508   -0.2921    3.6847
   -0.9923   -3.9254    6.3050  -10.5681    2.2695   10.5144   -1.7823    3.2662    7.3412    4.6339
  -12.1760    5.1961  -11.5250  -14.6451   -2.0600   -0.7038   -6.3343    3.4499    4.5092   74.1373
  534.2740
   -3.9835    4.8795    4.9122    4.6458  -13.1913   20.0275  -10.7061    7.2291    6.9648   11.1067
   -9.7569    3.6773    2.7379   10.6347    4.3646   -5.7678   -7.9237   18.6580   -4.1193   -1.6801
  -10.2224   -3.4220    2.6456   -9.9102    3.6279    3.9109   -6.8305    3.1614   -2.9296  -11.1032
    3.5528   16.1508  -71.0425    5.9377   -8.3274   11.5005   -2.6699   -9.2039   16.9215    4.2778
   -6.6343   21.9783  -21.8174    0.2730   -1.8658  -12.3140    9.5704    8.7603    0.7059   -1.4349
   -0.6536    6.1338    3.8252   -1.7716   -4.2072   -3.0253   -6.9420    5.0461   -4.7441    0.2809
    4.2542    4.3455   15.1866    0.7597   -5.2790    1.4207    6.1773   -7.8757    8.9499   -7.9464
  -24.4929  128.7429
    8.6180   -2.2272   -0.2582    6.1165   10.6528   -9.5092   31.4130    4.2241    7.7675    7.5839
   -2.4394    4.9505   10.4249  -11.8974   -2.7698    6.0727  -22.4264    1.2120   15.0726  -11.0809
   -4.7327   12.7738   -8.2803   10.1156    3.6785  -10.6522  -12.6585   15.9578  -12.9579   -6.4839
  -66.8108    5.6827   13.7264 -243.9104  177.9331  -10.3407    3.8328  -25.3770    0.9649    4.3031
  -15.8130    5.1292   -2.0185   -4.8942    2.1803    3.0775    0.5112   -2.3894   -1.9088   -6.8797
   -1.7294    2.3197   -3.8619    8.7754   -4.9205    1.1521    0.7620    2.2398   -1.4308    1.2629
    9.6680   -3.1876    7.3544   -6.6416  -11.2303   -1.5157    6.9398    1.7768   -3.2830    6.4022
   -1.6511   -4.1818  383.9212
   -6.6605   -3.8641    0.2501  -19.5855    9.1477    7.8815   13.2402  -77.9973   -6.4234   -3.4999
   15.3168    9.8460  -17.0648   16.5143   -2.8049    3.7986    5.2280   -0.1138  -15.3614    8.2540
    1.3334  -16.3838    0.9609   -5.8074  -18.3854    4.9752    7.7331  -14.5125    1.8055    3.3999
    1.2032   25.3883  -12.5296  189.2021 -232.5577   11.7659  -10.4787   26.3917   -6.3236   -1.1932
    0.5399   -7.6523   -6.2814    8.3225    4.0375   -1.1071   10.3911   -1.7530    2.6640   10.5262
    1.6460   -3.0177    5.7873   -7.2569   -0.4266    4.7966   -3.8538   -2.0591    4.1058    4.6016
   -4.0679    4.5089   -4.1205   -0.2123   -4.3534    0.7188   -2.6584    0.1697    1.8732   -5.3495
   -2.4765   -1.9915 -191.0792  383.7795
    5.6051   -0.0072    1.6307    2.3882   -6.7240  -23.2836   -7.6096    1.1991    7.3059   -1.8494
    3.8877    4.2342   -7.1797   -3.3713    0.0095   -3.0600    1.0414    3.5181    1.1157    2.7543
    4.7879    3.7053   -2.2223   -6.7496   -5.2966   -2.6295    5.9054    0.6967    3.6240   -6.0747
    8.0786   -5.5146    4.7361  -17.1541    5.9201  -66.4976   -7.8369   -7.2712    8.2727    1.0818
   -4.0319    9.8893   -1.7982  -10.1545   12.3665    2.3622    5.1823    3.4542   10.2018   -4.9848
   -4.7597   -3.4545    4.8369    6.6894   -9.9598    3.0641    3.6149   -4.8165   -4.1970    4.4643
   -2.4759   -3.7216    6.0648   -0.2170   -1.0846   -4.3825    4.0974    8.0232    5.9156   -4.6399
   -0.1675   -4.8116   -2.0436  -13.1312  121.4517
  -54.4818   13.2321   -5.1536  -62.4708  -15.1337    2.2863   47.1642   22.3644  -19.1020   14.2920
   28.5240  -25.6312  -17.2225   29.1890   24.8369  -10.2577  -53.8894  -27.0241   17.8881    1.3468
   -0.8127   -5.2718  -11.3448   40.8090   -0.1051   -6.0422   -8.9882   -9.7957   -1.7395    4.3611
    7.8983    1.2870    4.1052  -27.6310  -16.0760   15.2376   14.3989  -14.6736   12.7282   22.1264
  -13.4919   -3.5342    2.2992    1.3183  -15.5797   14.4468    0.6172  -10.1233   -3.9769   -8.3118
   -8.9070   -2.3918   -6.5312   -2.9083    0.7462    4.4783    1.7330   -4.0805   -1.9293   -1.9151
   -8.1009    4.1995  -11.7076   12.0900    5.6720   -1.3995    1.3189   -3.3756   -4.0588   17.3723
   45.4570   -2.0825   15.0349    4.7281   -6.3372 1289.0901
  -19.6272 -109.4213   10.1313  -52.2261  -17.5816    8.2067   38.1525   34.8542  -17.4742  -22.8884
   18.3840   -7.8249   30.7447    0.4413    0.4433   -2.6781  -15.7282   -5.4729    4.6505   -3.3182
   13.1529    0.8933   -9.0962    1.2355   -6.5547    1.1968    4.3328    9.5831   -3.9350    2.8670
   -2.8689   -5.1592    5.5164   19.3799  -17.8657    4.7360  -11.9920   -2.2356    1.0899    6.9337
   -3.6823    3.5432   -9.7722    2.0128    3.9444    3.8857   -0.4524    0.1486   -7.7335   -4.6092
   -2.9624   -2.6686   -0.8711   -7.2980    1.5579    3.1256    0.5909    4.2028    1.1285   -4.2356
   -7.1762    7.4739  -12.7073    3.4669   -0.4325    0.4541    3.0125   -0.3905    0.4893    5.4483
   33.4464   -4.9590   -2.4680    3.7412   -3.5796  313.4992  417.7353
   -2.6163   16.6036  -50.9133    2.8178    2.9872  -10.3729   -7.1106  -30.6625    0.4495   -2.1297
    5.8206  -19.1872   -2.3745   -3.5498    9.2627   -0.2866    4.3666   -9.9642   -2.2426    4.1104
    4.4459    3.6005   -4.2182   -6.4179   -2.4962   12.8224  -10.7745    9.2149    7.7532   -6.3465
   -1.9447   -4.0544   19.7222    0.5257   11.2286   -5.5798    7.0601    5.9624    4.7657  -10.1328
   -1.1260    3.0231   -3.0650    0.4514    3.2909    2.0765   -1.4284   -0.5795   -2.1919   -7.8241
    0.9657    0.9277    1.6708    3.1687    0.8682   -8.0140   -4.0556   -2.5846    3.7316   -2.7820
   10.9914   -5.1891    3.6913   -0.4620  -10.4304   -3.3702   14.8135   -0.1991   -7.8770    4.4059
   -2.5462    2.0280    5.7720    1.6472    4.2823   60.3734    4.4142  197.8515
  -17.7819  -44.4080    8.5426   35.5728   -1.4389    0.7809   -9.1745   39.3887    6.6655  -19.4659
   -9.9457   20.8079   21.7982  -25.3897  -36.3711   35.6308   36.5475   46.6275   18.3896    5.2260
    3.0268  -20.2464   -0.2434  -32.8587  -11.1270  -10.5954    6.6286  -26.9882  -18.2350    3.7098
  -12.6464   -0.9270  -33.8577   13.7083  -32.1246   -4.3037   22.8688   -2.5970  -18.8258  -24.0196
   20.6734   -3.5158   -3.0211    4.5381   16.8274   -3.5078    4.9510    9.6162    5.7692   14.1543
    9.2247    3.7909    9.3272    7.7571    5.6977   14.5979   -0.2075    4.5844    7.3293    6.9591
   -1.7426    1.3574    2.6588    6.4158    0.7729    1.6085   -7.1977    6.8960   12.2929   -3.0134
  -21.6140    4.5494  -22.7547   19.1121    2.0597-1024.8661 -238.1663  -43.0475 1562.1035
  -25.3387  -27.2201   18.5387   21.3421   12.7537   12.6641   10.1069   30.5381    2.3276  -11.8626
  -35.0634    8.0934   22.7937   -9.0670  -18.5986  -15.5310   14.9782   25.5746   28.4812  -31.5652
    1.4463    6.6726   12.0512  -19.8941   -1.5224    6.3160    1.5957  -24.1010   18.3425  -12.6073
   23.4977    1.7335  -18.5098  -28.3325  -55.0166   -4.1920   -5.1657   19.7742   -2.2801   -7.5363
    8.0925    5.6719   -1.4796   -0.3563   12.1269  -13.3661   -7.5365    9.4216    0.5929   -3.6242
    3.5750   -2.8864    1.1593    2.2367   -3.5679  -13.5022    4.8696    9.7273   -1.1158   -2.7464
    9.3136   -4.9468   12.6583   25.5043    6.0873    1.2202   -1.6474    6.9310   16.5801    4.9182
   -2.2076    7.4893   -4.1367   10.8929    0.0208 -310.7387 -187.9887  -18.4029  307.0432 1252.8034
    0.0573  -27.8500    8.9596  -21.7870    2.6975  -19.3321   11.6915   46.5587  -15.2908    8.6458
   -3.3469    6.6695   -3.0865    4.9624  -13.8385   -2.0937  -13.5288    9.7916    5.6146   -6.5012
   -8.2241   -4.6905  -10.8799   -1.5584    1.6384    1.9126   -3.0060   -1.9835   -3.1096    3.1393
    2.4763    8.0382  -22.3301   -3.1037  -17.8016    9.0211   -9.2523   -1.7426  -20.7463    9.3432
   -2.7236    1.7574   -1.0819    2.9237   13.6173    8.5302   -1.4791    3.1939   -1.4212    2.7508
    2.8247   -6.0796   -1.1284    2.1051   -1.7808   -2.6300    1.3024    4.1562    1.9028   -2.0575
   -1.3100    0.7387    2.3000   14.2932   -1.3849   -6.2716    6.0253    2.4714    5.4700    3.7248
   11.7738    9.3246   -0.2520    5.6506   -0.0784  -55.8126   -5.6378 -102.4468   67.0471   50.5110
  399.7102
  -52.1379  -25.0757   -0.4925    5.4189  -13.7470   -8.0798    2.1533   38.3491    6.4464  -48.4584
   16.3710    2.8132   38.4823   -3.3245    5.1581   24.9707   10.0816   -0.0377  -19.7484  -39.2502
   14.6534    4.9550   -1.6399   -9.2973   -0.1178    5.9012   -4.6008   22.9369   12.0023   -9.9851
   -6.3498   19.5471    6.3603  -16.0048    3.0728   -2.3194   12.6570  -16.0573    0.8150    2.8058
    0.7430   -3.4029    3.4131   -0.9236   -2.7282   -2.5989   -3.5239    3.7949    0.8135   15.5805
   -2.7010    6.5436   -2.4029    3.9962    3.3203   10.9974    2.6558    1.1960   -1.5345   -3.1508
   -5.8608    6.6030   -4.3978  -12.1606   11.9789    1.6948   -7.4392    8.3598    7.7572   -0.5549
   -1.0949    0.0679   15.6798  -11.8645   -5.2493 -194.9566   19.8809   -4.6012 -135.9035  179.9693
    3.5493 1354.4437
 -100.4962   -4.8860  -31.2816  -18.8558   22.8571  -13.3038   29.9431   10.9280   16.8945   11.0499
    3.8247   12.1820   39.5876   70.8694    9.4305    9.7632  -63.3263   -2.2676   11.8614   -1.1330
    1.7399   -6.4913   -0.3086  -16.0059   12.7786  -10.6329   -1.3845   -2.3699  -18.8145   12.8981
   40.0375   37.3987   -4.5900  -42.9711   11.2418    8.3549   31.0307   -6.9921  -11.9000  -12.8947
    6.4140   -3.9881   -1.8401   -2.4572   -3.4680    1.4519   -2.1573    8.7782   -0.2337   13.5970
    0.4838   -1.0673   -0.1922   -0.7471    0.8398   15.5836    1.5381   -7.5089   -7.9928   -9.1267
    4.8739   11.7166   -2.5738    0.1936   14.5418    1.7195    6.8262    2.5626   -5.1143   -7.7788
  -18.6598   -9.6195   10.7386    0.3574   -2.0362   23.1876    3.8962   -0.8277  110.7313 -110.0004
   -5.6104  345.8097 1688.5126
   13.8504   13.9730  -17.7436   21.1721   -6.4210  -11.7772  -20.9732  -38.6706    4.0083   -2.0907
   -3.6786   -2.8339    9.9386    9.3581    3.6576   14.2638   -3.6011   -7.7264   -9.2228    4.0386
    4.8375   -0.8836    6.8643    0.1974    3.9182    3.4720   -1.1811   14.5776    0.4474   -2.5057
   -6.0825    5.5864   14.5528    9.6115   41.1909  -17.6002   -0.2971   14.3707    6.7113    1.9646
    5.7044   13.8381    5.8552   -2.2099  -14.6512   -2.8332    2.2931   -3.3253    2.0485    4.5231
   -0.4711   -1.4106    1.3412   -4.3919   -3.0277    0.8673   -2.6390   -6.3780   -4.0445   -3.9308
    1.9780    1.6090    1.9605  -17.1963   -1.4173   -4.0345    8.0696   -0.5725   -4.2121   -0.8157
   -0.0827   -0.3534    9.6168  -10.1173    3.7555    8.1044    0.0898   41.2324  -14.8442  -15.6900
 -152.9790   36.5037   68.5912  376.4300
   -7.6080   13.3429   10.2911    6.8068    3.7082    0.8702  -17.2128  -29.0610   -3.9801   38.7751
   -6.8689   -4.5950  -40.8819   13.4225  -11.8117  -27.7315  -11.4759   10.0483    6.4076   23.2656
   -0.8907    8.6106  -20.7684   -3.9502  -16.2845  -15.5200    6.7944  -12.2693   -3.6606   -6.0547
    9.4036  -14.9794    3.2253   10.7539   33.6846  -10.2716   15.6670   18.1309    4.5462    4.9225
   -4.0200    3.8428   -0.8519    1.3364    7.2887  -12.8434   -3.4479    2.2355   -1.3390    5.3549
    7.3709   -0.6571    1.6711   -0.9261    2.8451   -7.3480   -1.9066   13.6469    6.8972    2.8166
   -2.5799   -8.2851    1.7872   10.8452   -5.6285    3.4054   -5.9240   -3.5901    7.8025   -1.2134
   -5.0377    6.3180    0.5638   -5.4948    3.9811   45.1169   22.1349   10.9546 -127.4109  -52.3847
   -4.3365 -591.6924 -126.0155  -15.6667 1226.7180
   22.8398  -23.0319    3.0326  -27.4118   -6.3849    7.8265   53.9491   18.6350    1.5567  -34.8675
  -32.3519   -5.7675   22.0838   -5.0007   -6.6006   39.5022   20.5533   23.3067  -15.3227   12.9839
   -8.1665   -7.4881    0.8581   -0.5329    1.2089    3.3987   -1.5044  -17.1124   -5.9143   -0.4900
   -9.7600  -19.0211  -16.5946  -26.9632  -18.6895    2.0725   22.4635   19.0017    3.2597  -12.5112
    9.5928   -2.6197   -2.3536   -1.2303    2.1493   -1.8931   -1.8767    4.3023   -0.6021   -4.8965
    1.0773    0.6472   -1.9505    4.1104    4.0769   -5.7694    2.0346    3.3399    2.3392    1.0826
    1.6814   -2.7857    4.6420   14.3044    2.3057    5.2413   -8.2362   -0.3798   11.3294   10.2468
   17.5578    2.3909   -3.8864    9.7517    7.1569   41.5804   15.1963    1.7067  -30.7457   -3.4141
   -1.2841  -85.5332 -205.6881  -37.2696  205.1985 1521.1717
   -0.6556    4.0909   -0.0371   -1.7343    4.1077    2.4238   18.5641   12.7378  -10.7291   -7.4623
    0.8250    4.3620    1.5654   -0.6942  -13.4278   -5.7068    0.7363   11.5036   12.2219    1.3921
   -4.9196   -5.2777    5.6321    5.4945    5.0551    2.1211   10.3664   -0.0528   -0.0617    6.8544
    9.7515   -2.1509  -15.2266   -6.8164   -9.1413   -4.4013    5.0773   -8.5386   -9.8340    1.6316
   -1.1184   -4.5996    5.4576   -2.4520   -4.8537    5.1769   11.3666    2.7629   13.5138    8.0945
   -0.6856    1.9655    9.1753   -3.1786   -4.4354    1.9793   -4.0008    3.6420   -1.9675    1.5851
   -0.7186    3.6913   -1.0964   10.2211    1.9508   -2.7666    5.3779    1.3711   -0.2823    4.5076
   -1.1023   -1.9192    2.7844    5.0438  -13.2300    0.4289   -3.7273  -17.2993  -14.5953  -11.2643
   32.9889   -7.4135  -20.2832 -141.1972   21.9419   59.0463  339.3111
   -2.8760    4.3473   -1.6027  -19.1265    0.7566    6.4845   29.7402   18.7639   -1.4326    8.8231
    9.6347   -6.0345   -5.9021   22.1408   -3.8347   11.5837   -3.9258    3.4617  -17.4203    7.2087
   10.5774   -7.7722  -20.2393   -3.9451   10.4610  -12.2082    3.1816    5.9733   -6.1406   -4.6169
   -4.9010   -8.2458    9.4158   -2.4965  -18.2924   -7.5696    0.5031   -7.9787    3.5014    5.6065
   -1.9381   -0.7688   -7.2470    6.9915   11.3175   14.0624    4.8954    5.3388    0.0110    8.2337
    1.4313   -3.1648    5.4509   -6.0116    0.8322    7.1100    0.6049    3.4172    0.8803   -2.2574
    1.5102    2.9402   -1.1416    3.8160    4.5809    2.0031   -5.4872    4.1201    7.9992    6.8662
   11.3832   -2.0103    2.7327    4.8793   -3.7669   11.6885   -3.4830   -2.2545  -14.2647   30.2415
   10.5031  -29.5319  -89.2225    0.2728 -171.2774 -188.3755   -0.4669 1250.6265
  -11.3219  -14.2807    9.3045   17.9330   -9.0249   -2.1344  -28.3738   16.1284    4.0253    8.7723
   47.4962   -7.7527   -1.6724   23.7678    9.0279  -30.1318  -15.4380  -28.0755    6.0320  -12.3139
   16.2833  -12.4059   -2.0961   19.2594   -6.6587   12.5371  -14.2527   -4.4322   24.4348   -9.4903
  -26.7510  -16.7083   14.3154   30.6991  -12.5548  -17.6612    7.9029  -39.5902    9.2052   16.0441
   -5.3935    1.8090    5.7136   -4.8473  -11.3887    8.2098    0.4245    1.8027   -1.4485    2.3163
   -0.1332    6.6088   -2.2690    9.7963    5.3470    1.7148   -0.3455   -0.5485    3.6691    1.3554
    1.8112   -4.4717    3.3356    3.9768    0.8842    0.1456    4.2507   -1.7513   -0.9917    0.6711
    6.7934   -0.7908    1.4510    4.0588    2.0118  -37.7429    0.1647   -6.7567   73.5239   15.5256
   14.8660 -111.4063  -14.9075   15.5054 -110.0018 -812.2793  -37.8040  -20.6348 1578.3396
   -7.8042  -17.2807   -6.4298  -10.5381   -1.6800    9.0126    5.2551   24.6068   -2.3279   14.2988
   -0.3072  -14.3769   -1.9172   -2.4078   -0.7509    8.3799    0.7487    0.4595   -5.6077   -0.2052
   -1.2871   -6.3364   -1.4929   14.1485   10.2318   -2.1889  -12.2408    2.8650    9.3189    9.5878
   -2.5149    5.4939   -9.8204    4.2859  -26.5924   -2.6566   -2.4209    0.3775   11.4863    2.1983
    4.1227    6.3546    7.1906    2.1811  -10.3722    2.9192   -0.8766   -2.3138   -0.0312    3.2273
    0.5027   -0.6091    3.7243   -2.7982    3.2633    0.1794    0.8067    0.9537    4.2071    4.2432
   -6.2452   -0.0646   -3.4381   -6.2331   -0.3538   -3.1085    5.0604   -4.8098   -4.9922   -1.8343
    3.3562   -3.7280   -4.9910    6.1377    3.8969  -34.6344   -4.4542   -9.0096   46.6173   20.6946
    3.7285  -17.9919   -0.4346   22.2860   -3.6141  -28.0756 -127.6253   -8.7566   51.8377  409.7639
  -11.5245   -1.0445    8.5282   -8.5662    6.5864   -3.7905   12.3615   -2.4396    1.5937  -23.0604
   -8.6552   -3.4414   22.4210  -12.2784   -3.0683    2.8051   -5.4957    6.4241   25.5398  -16.8475
  -13.9483  -22.4986    1.9325    2.9931  -16.8292   -6.1390   16.5711  -18.4393   -3.8938   12.8788
    2.6563   21.1361   -7.5090    1.7662  -14.8290   -3.1601   25.3694   19.2464   -9.3534   -5.3304
    9.5651   -1.1444    2.4801   -0.3351   -2.5012   15.7935    1.5999    3.3352    0.9774   -2.3028
   -0.4611    0.7554    3.4841   -1.7002    0.8621    5.3447   -0.8441    9.4363    1.4774   -6.9605
    1.0984    4.1511   -9.4990   18.1959    4.8523   -0.9032    6.0760    2.9268   -0.2210    0.3995
   -5.3179   -1.2551   -2.0253    7.3283    1.7542  -10.6657   -9.4141    3.1987    4.2408   -4.0982
    2.6193   -6.6207  -16.5400   -5.2860  -54.2700  -49.5511   -0.2685 -333.4552  -63.3637  -12.2759
 1006.2556
    1.3814  -17.0016   -1.7482  -12.0011    0.7636  -10.3926    4.1383   -2.9598    6.9584   23.8764
   23.2928   -9.0542   -5.6821  -15.2470   13.7553  -19.6497  -13.4219   -8.7135   -9.8820   33.8837
   11.2462   -4.9730   -8.0186   14.4621    3.9824   14.9461   -9.4581  -28.7760   -0.4933  -19.2646
[...]
  -20.4311   20.7144  -12.6346   20.9518 -138.8442   84.9000 -167.9688  -22.3601   19.6298  -57.1154
   14.6202   -8.8382    8.9850    8.9539   -8.6775  -14.4498    5.8641    2.2974  -17.0925  129.3559
  -86.7120  295.7622
   -8.0659   -4.0783   -2.9905    5.0110   -7.3604   -9.9348    7.0687   -8.0987   -0.1721    3.5566
    5.5655  -10.3248    7.5370    3.9861    6.2860    9.2431  -15.5960   11.1831   11.3507   -3.3433
    3.1197   -3.5948    5.9335  -10.6450   -4.9389   -6.5711   10.6650    1.8038   -8.1867   -3.1291
   -3.5664   -5.1032  -12.3028    8.4089   10.8259    2.2054   12.7790   -7.4210  -11.8178    0.2651
    5.5227    1.7668    2.2711    9.7084    6.5963    6.6461   11.6720    2.1180   11.6071    7.6629
    8.2803   -2.3065    1.4240    3.9760   -3.2388    4.1632   -1.7925   -0.6813   -0.7702    0.8612
   -4.7602    1.3856   -0.8199    8.1220   -1.6794   -6.2687    3.7878    4.2262    8.7252    0.5729
    1.9600   -1.4706    0.9910    1.9297   12.0680    5.3075    2.6684    0.6553    4.9608   -4.5155
    9.0490   -4.6143   -7.5524   -7.4821    1.9434   -2.8403   -7.3590    7.6643  -17.3850   -1.1345
    0.9050   -5.5288    2.3164    9.2889    3.9108  -10.9029    5.3446   -2.2169   -2.9789   -0.1220
    2.1196   -0.1225   -0.9455   -2.4250    7.1519    2.2011   -8.3189    7.5934   10.7214    3.7256
  -11.1446   -3.0837   -2.5719   -9.1279   -9.6901    2.5200   -2.6782   -5.1341    1.9071   -6.8759
   -0.5748   -6.1498   -4.6858    7.0448    0.8397   -4.0766   -0.6863   -2.3691    4.7226    0.1770
    0.4889   -3.7050    8.7202   -4.1615   -7.0953   -1.9173   -2.1347   -7.8239   -0.3790   -3.8930
    2.7900    4.8639   -0.6606   11.6452    5.1571    1.4167   11.7595    0.0576   12.9013   21.1104
   23.2874    6.5117  -18.1712  -41.2736  -21.8872  -24.3736   10.4561    5.7390    3.5441   -7.2298
   18.9186   -9.8128  -34.0077   25.0031    6.5563   13.7584  -20.2678   -8.8575   12.2889  -20.4936
  -25.7015    2.7520    4.7060   -0.6764   19.2069  -10.4530   16.5319 -221.0175  130.6301  126.7905
    9.1675   -7.2775  -24.7618   26.4510  -20.0282   -1.1817    8.1926    2.2324   -8.9581   13.3432
  -14.1376    5.2009  379.2322
    8.7417   -0.9169   -7.3393    3.5586   12.7589   17.0061   -6.7806    2.9482    9.1952   -3.8755
   -6.8176    6.8576   -3.4626   -1.4077   -1.1086   -0.3203    9.7490   -1.3947   -3.5438    4.4892
    3.9590   10.4331   -1.1266    6.5228   -3.7698    2.0302   -9.4824    3.2063    5.8361   -4.2439
   -3.3931    4.5612   22.5343   -0.0882    1.7860   11.5256  -15.5898    9.1523   -4.6451   -2.2845
    0.6225    3.7013   12.5344    5.9870   -5.5525    0.5571   -3.8463   -7.4331    0.2545    3.8436
    2.3651   -5.7600   -3.2115    4.9588    2.3653    1.3844    2.3680   -7.8825    3.7384   -4.8239
    0.4916   -1.9052    5.8466   -8.0435   -2.3101   -5.7959    9.9074   -0.5922   -3.4780    1.0830
   -3.9288    5.3111    4.2380    1.7677   22.0937   -7.0282    1.5240    8.4872   -6.1409   -5.6407
   -6.1523    4.7376    8.2580   10.3981   -3.8853   -3.2603    0.9174   -6.0636    4.3030    1.2199
   -4.2908    0.2128    2.8405  -10.3952   -3.5616    8.7218   -7.3168   -1.8794    9.5536   -7.9855
   -6.3040    7.1817   -1.8955    1.3381    7.3452   -2.5194    4.2657    0.2732  -12.9131   -8.9065
    3.7378    1.1996   -6.7999    2.5170   -2.6804   -0.9084    2.2864    3.2811    2.6459   -0.2559
    1.0028    2.2040    1.0630   -2.6834    2.6372    7.4259   -1.8480    0.9446    4.5386    6.7058
   -0.0932    3.2495   -3.2786    0.2779    1.8314    4.5037    1.3983   -0.9046   -7.0802   -0.2364
   -5.2340    2.5785   -0.0850   -0.2727    1.4417   -0.3590    4.8237   18.7622    0.9412   32.1315
  -38.8962   10.6992   19.6651   -2.5733   -2.4754   -7.7368  -28.1430  -10.4318  -23.9963   51.5682
    0.0846  -34.8459   30.5382   -6.8772    4.2406  -15.4714   13.7987   14.5914  -10.3336    6.3662
  -10.0327   -5.7470  -12.0610   -6.4117    5.6446   20.8204    2.5485  124.4565 -146.4590 -122.5794
  -12.0577   -3.3410    5.4193  -17.9761    5.1303   -2.2067    3.6991   11.7926   -2.1799  -24.3597
    4.0293  -13.4452 -154.4310  294.5652
   -0.7121    9.0085    6.4859    2.4039    9.4705    4.8062   -4.7662    0.1486    3.9723    0.7062
   -9.3409    7.7918   -8.3389    0.5839    7.7771    5.4648    8.7061   -4.9295   -4.4014    4.3161
    1.6121    5.4410   -6.8228    0.2631   -4.2732    7.5434   -8.2657   -4.5878    6.4997    1.7680
   -5.5869    1.5872   13.0803   -6.0996    2.1430    0.6880   -7.4337    7.4180   11.7034   -6.1942
   -4.1782    6.6598    2.1896   -4.1846    2.4667   -2.5322   -2.1617   -2.0441    1.5097   -2.6895
   -3.8195    4.8647   -0.5043    7.0211   -0.4269   -4.7712    2.8118   -1.2767   -0.6610    3.2277
    0.7579   -3.5216    5.5609   -9.4047    1.0938    2.4713   -2.2323   -2.3970   -2.1364   -0.0372
  -11.0426   -2.1408    3.2770   -0.9119   -2.0273   -7.5514   -1.5220    7.4601    0.2453    4.2020
   -3.9299    1.5846    7.2543    8.6341    0.5471   -1.2127   -5.2659   -5.4322    9.4413    1.2907
    1.4398    3.2787    2.6875   -0.6545   -3.8144    9.5963   -6.5171    0.4676   13.3352   -4.4008
   -6.7941   -3.6067   -4.6083    1.8055    3.3592    1.1972    2.1978    1.5248  -10.0030   -6.3543
    6.8695    0.3450    0.1494   -3.6342   -0.4325    2.4158   -1.8102   -0.1169    2.9158    0.9742
    3.9888    6.7559    0.4898   -6.2801    2.4547    3.5208   -2.1412   -4.7907    1.2429    8.4839
    2.0243    5.9032   -6.9213    3.6396    4.4790    5.4471    2.5075    5.0032   -1.2183    0.7060
   -5.8475    1.2744    0.4600    3.4228    0.0849    1.3754    5.0873   27.8922    3.8196   17.9329
  -12.5534   -2.5771   10.5431   28.2158    4.9916   16.2132  -54.8469  -10.4588  -22.7727   28.7914
  -14.0349    3.0917  -14.5349   23.9913    9.6091   -4.3352    4.8944   -1.1630  -10.3454   19.9260
   -4.0910  -10.3273   -1.8452   -9.5639   21.5942  -21.5639  -56.0705  112.9842  -92.3312 -152.1758
    1.8370   -3.2739    6.8790    0.7744   -3.7035   -7.1896    0.2178    3.8588  -16.6840   -7.5166
    5.2109   -2.4734 -129.6122   96.7203  292.8207


      MOLECULAR POINT GROUP   :   C1  


          ALPHA EIGENVALUES  
 -31.72735 -29.29444 -28.98261 -28.37339 -26.87586 -26.23228 -26.14702 -25.29196
 -24.43122 -24.09500 -22.79159 -22.43930 -21.52770 -21.18393 -20.27776 -20.15953
 -20.08731 -19.85902 -19.44597 -19.38608 -18.67791 -18.22111 -16.78536 -16.52749
 -16.03512 -15.62499 -15.38862 -15.24534 -14.75669 -14.16695 -13.56746 -13.08458
 -12.87075 -12.10965 -11.98644 -11.85337 -11.34053 -11.29656 -10.99716 -10.76103
 -10.67121 -10.53904 -10.51522 -10.47021 -10.15783  -9.89903  -9.84207  -9.67669
  -9.58337  -9.49630  -9.42951  -9.23552  -9.15955  -9.00234  -8.91133  -8.88666
  -8.82996  -8.74439  -8.40916  -8.31682  -8.29496  -8.13865  -8.12474  -8.02286
  -7.94355  -7.82697  -7.69501  -7.56250  -7.51961  -7.41695  -7.39655  -7.24712
  -7.19741  -7.16286  -7.00239  -6.84349  -6.74860  -6.34072  -6.25140  -6.07152
  -5.96893  -5.84582  -5.47920  -5.16595  -4.95601  -4.88673  -4.38798  -4.30082
  -4.15401  -3.79122  -3.70977  -3.42376  -2.86391  -2.73232  -2.23920  -1.49211
   5.19484   5.21336   6.53235   6.64914   6.70850   6.96119   7.07643   7.15157
   7.28821   7.36440   7.78394   7.85436   8.01514   8.12534   8.20870   8.35554
   8.67881   8.70830   8.76155   8.81367   8.97236   9.12473   9.15594   9.16523
   9.35418   9.40360   9.51126   9.54028   9.67637   9.74104   9.76774   9.81523
   9.81738   9.86507   9.95229   9.98928  10.17473  10.23320  10.27753  10.28060
  10.40161  10.41598  10.46302  10.51068  10.55925  10.56071  10.57677  10.76485
  10.78513  10.80924  10.83250  10.91777  10.93273  11.05716  11.12313  11.24156
  11.33482  11.34723  11.39722  11.53499  11.57681  11.59106  11.63502  11.65813
  11.69132  11.76127  11.78439  11.94084  12.00537  12.05353  12.12787  12.15345
  12.38198  12.46981  12.56538  12.66177  12.70750  12.73162  13.54941  77.36630
  78.24459  78.30731


           BETA EIGENVALUES 
 -31.64942 -29.58125 -28.92781 -28.35729 -26.42642 -25.90056 -25.41756 -25.26475
 -24.26468 -23.82923 -22.47417 -22.33270 -21.64901 -21.12022 -20.15622 -20.07844
 -20.01486 -19.76262 -19.38595 -19.12866 -18.65754 -18.08913 -16.26577 -15.99010
 -15.85272 -15.72131 -15.20720 -15.12869 -14.57647 -14.06603 -13.00926 -12.63206
 -11.96564 -11.85314 -11.72481 -11.35961 -11.22007 -11.16330 -10.74386 -10.65518
 -10.49991 -10.46930 -10.25730 -10.05145  -9.91231  -9.79224  -9.75563  -9.64881
  -9.45702  -9.34607  -9.24436  -9.08440  -9.05724  -8.90426  -8.76402  -8.69317
  -8.63536  -8.36636  -8.26033  -8.23389  -8.20517  -8.13327  -8.04396  -7.95923
  -7.81106  -7.66598  -7.63317  -7.51655  -7.49820  -7.32652  -7.22375  -7.20652
  -7.19245  -6.74107  -6.56761  -6.41983  -6.34967  -6.30362  -6.20568  -5.89341
  -5.72073  -5.64119  -5.07260  -4.94254  -4.75415  -4.65105  -4.23412  -4.09641
  -3.89872  -3.49740  -3.17104  -1.85793  -0.52902   3.56675   5.88769   6.14920
   6.60389   6.71402   6.75606   7.11004   7.14085   7.19018   7.63270   7.74454
   7.80129   8.05521   8.12123   8.15902   8.22669   8.27493   8.55820   8.64968
   8.68996   8.81983   8.99493   9.06376   9.12873   9.23651   9.38129   9.51267
   9.53982   9.55812   9.59502   9.67729   9.69637   9.74392   9.77164   9.81631
   9.83345   9.88572  10.03271  10.18024  10.28064  10.32943  10.40051  10.41085
  10.42206  10.43143  10.51161  10.53882  10.57680  10.58655  10.60942  10.71883
  10.82064  10.87656  10.93319  10.94970  11.01049  11.16768  11.19658  11.31166
  11.36956  11.37519  11.42369  11.57734  11.58172  11.60076  11.69133  11.74897
  11.78884  11.83994  11.96657  12.04510  12.07001  12.09741  12.16219  12.32230
  12.40904  12.47847  12.54193  12.66227  12.67836  12.71155  14.57592  80.82813
  82.18871  82.86928


              NET ATOMIC CHARGES AND DIPOLE CONTRIBUTIONS

  ATOM NO.   TYPE          CHARGE      No. of ELECS.   s-Pop       p-Pop       d-Pop       
    1         Cr           1.105482        4.8945     0.22283     0.04335     4.62833
    2          O          -0.621284        6.6213     1.79076     4.83053
    3          C           0.296562        3.7034     1.08024     2.62319
    4          C           0.301190        3.6988     1.08081     2.61800
    5          C          -0.316450        4.3165     1.06195     3.25450
    6          C          -0.051431        4.0514     1.06042     2.99101
    7          C           0.144378        3.8556     1.05174     2.80388
    8          C          -0.464699        4.4647     1.06020     3.40450
    9          C          -0.464291        4.4643     1.06029     3.40400
   10          C          -0.471424        4.4714     1.06068     3.41075
   11          C          -0.208552        4.2086     1.06623     3.14233
   12          C          -0.308028        4.3080     1.06040     3.24763
   13          O          -0.622602        6.6226     1.79022     4.83238
   14          H           0.146205        0.8538     0.85379
   15          H           0.146684        0.8533     0.85332
   16          H           0.105703        0.8943     0.89430
   17          H           0.159169        0.8408     0.84083
   18          H           0.147275        0.8527     0.85272
   19          H           0.156907        0.8431     0.84309
   20          H           0.105404        0.8946     0.89460
   21          H           0.140807        0.8592     0.85919
   22          H           0.109540        0.8905     0.89046
   23          H           0.139672        0.8603     0.86033
   24          H           0.107202        0.8928     0.89280
   25          H           0.140461        0.8595     0.85954
   26          O          -0.452012        6.4520     1.82495     4.62706
   27          C           0.321048        3.6790     1.10682     2.57213
   28          C           0.342894        3.6571     1.10647     2.55064
   29          C          -0.301705        4.3017     1.07527     3.22644
   30          C          -0.002884        4.0029     1.07150     2.93139
   31          C           0.125280        3.8747     1.05140     2.82332
   32          C          -0.462629        4.4626     1.06020     3.40243
   33          C          -0.461175        4.4612     1.06012     3.40105
   34          C          -0.470824        4.4708     1.06035     3.41048
   35          C          -0.186905        4.1869     1.07455     3.11236
   36          C          -0.265223        4.2652     1.07687     3.18835
   37          O          -0.471168        6.4712     1.82103     4.65014
   38          H           0.162370        0.8376     0.83763
   39          H           0.148519        0.8515     0.85148
   40          H           0.115039        0.8850     0.88496
   41          H           0.161809        0.8382     0.83819
   42          H           0.151175        0.8488     0.84882
   43          H           0.159088        0.8409     0.84091
   44          H           0.114199        0.8858     0.88580
   45          H           0.143208        0.8568     0.85679
   46          H           0.119308        0.8807     0.88069
   47          H           0.141541        0.8585     0.85846
   48          H           0.120473        0.8795     0.87953
   49          H           0.153773        0.8462     0.84623
   50          N          -0.522044        5.5220     1.63987     3.88217
   51          C           0.341691        3.6583     1.07004     2.58827
   52          C           0.347076        3.6529     1.06878     2.58414
   53          N          -0.459131        5.4591     1.84504     3.61409
   54          N          -0.469270        5.4693     1.84575     3.62352
   55          C          -0.356067        4.3561     1.05017     3.30589
   56          C          -0.194240        4.1942     1.06939     3.12485
   57          C          -0.050239        4.0502     1.07801     2.97223
   58          N          -0.361773        5.3618     1.61488     3.74689
   59          C          -0.039175        4.0392     1.07939     2.95978
   60          C          -0.203154        4.2032     1.06882     3.13433
   61          H           0.099879        0.9001     0.90012
   62          H           0.105416        0.8946     0.89458
   63          H           0.162349        0.8377     0.83765
   64          H           0.163688        0.8363     0.83631
   65          H           0.105914        0.8941     0.89409
 DIPOLE           X         Y         Z       TOTAL
 POINT-CHG.    -4.434    -4.649    -3.731     7.429
 HYBRID        -0.118    -0.161    -0.790     0.814
 SUM           -4.551    -4.809    -4.521     8.018


          ATOMIC ORBITAL ELECTRON POPULATIONS

     Atom    s        px        py        pz      x^2-y^2     xz        z^2       yz        xy
    1 Cr   0.22283   0.01449   0.01438   0.01448   0.55766   1.18152   0.58209   1.21015   1.09691
    2  O   1.79076   1.34665   1.72699   1.75689
    3  C   1.08024   0.81566   0.93201   0.87552
    4  C   1.08081   0.93447   0.81078   0.87275
    5  C   1.06195   1.04275   1.01317   1.19858
    6  C   1.06042   0.93490   0.98717   1.06894
    7  C   1.05174   0.98972   0.89912   0.91505
    8  C   1.06020   1.11681   1.17548   1.11221
    9  C   1.06029   1.12589   1.16533   1.11278
   10  C   1.06068   1.14142   1.10149   1.16784
   11  C   1.06623   0.99512   1.05058   1.09663
   12  C   1.06040   1.01669   1.03701   1.19393
   13  O   1.79022   1.74287   1.33231   1.75721
   14  H   0.85379
   15  H   0.85332
   16  H   0.89430
   17  H   0.84083
   18  H   0.85272
   19  H   0.84309
   20  H   0.89460
   21  H   0.85919
   22  H   0.89046
   23  H   0.86033
   24  H   0.89280
   25  H   0.85954
   26  O   1.82495   1.31119   1.78643   1.52944
   27  C   1.10682   0.84935   0.92658   0.79620
   28  C   1.10647   0.92619   0.84236   0.78209
   29  C   1.07527   1.05345   1.02473   1.14826
   30  C   1.07150   0.94738   0.98628   0.99773
   31  C   1.05140   0.97702   0.91490   0.93139
   32  C   1.06020   1.12547   1.17601   1.10095
   33  C   1.06012   1.13403   1.16221   1.10481
   34  C   1.06035   1.15310   1.08855   1.16883
   35  C   1.07455   0.99640   1.06112   1.05484
   36  C   1.07687   1.02494   1.04741   1.11601
   37  O   1.82103   1.79806   1.30366   1.54841
   38  H   0.83763
   39  H   0.85148
   40  H   0.88496
   41  H   0.83819
   42  H   0.84882
   43  H   0.84091
   44  H   0.88580
   45  H   0.85679
   46  H   0.88069
   47  H   0.85846
   48  H   0.87953
   49  H   0.84623
   50  N   1.63987   1.05744   1.55323   1.27150
   51  C   1.07004   0.86073   0.87085   0.85669
   52  C   1.06878   0.85475   0.88154   0.84785
   53  N   1.84504   1.18693   1.26119   1.16598
   54  N   1.84575   1.18219   1.27664   1.16469
   55  C   1.05017   1.10418   1.15014   1.05158
   56  C   1.06939   1.05674   1.05673   1.01138
   57  C   1.07801   0.98549   1.02577   0.96097
   58  N   1.61488   1.18495   1.23213   1.32982
   59  C   1.07939   1.00473   0.99751   0.95754
   60  C   1.06882   1.05400   1.06751   1.01282
   61  H   0.90012
   62  H   0.89458
   63  H   0.83765
   64  H   0.83631
   65  H   0.89409


                    (SZ)    =    1.500000
                    (S**2)  =    4.708604


          ATOMIC ORBITAL SPIN POPULATIONS

    Atom   Total    s     px     py     pz   x^2-y^2  xz     z^2    yz     xy
         Atomic
    1 Cr  2.5357  0.031  0.000  0.000  0.000  0.053  0.783  0.075  0.751  0.842
    2  O  0.0451  0.004 -0.005 -0.021  0.067
    3  C  0.0470  0.011  0.017  0.005  0.014
    4  C  0.0472  0.011  0.005  0.017  0.013
    5  C -0.0039 -0.001 -0.001 -0.001 -0.001
    6  C  0.0032  0.000  0.000  0.000  0.002
    7  C -0.0003 -0.000 -0.000 -0.000 -0.000
    8  C  0.0001  0.000  0.000  0.000  0.000
    9  C  0.0001  0.000  0.000  0.000  0.000
   10  C  0.0000  0.000  0.000  0.000 -0.000
   11  C  0.0033  0.000  0.000  0.000  0.002
   12  C -0.0048 -0.001 -0.001 -0.001 -0.002
   13  O  0.0508  0.005 -0.021 -0.005  0.072
   14  H  0.0002  0.000
   15  H -0.0000 -0.000
   16  H  0.0000  0.000
   17  H -0.0000 -0.000
   18  H -0.0000 -0.000
   19  H -0.0000 -0.000
   20  H  0.0000  0.000
   21  H -0.0000 -0.000
   22  H -0.0000 -0.000
   23  H -0.0000 -0.000
   24  H -0.0002 -0.000
   25  H  0.0003  0.000
   26  O  0.2381  0.010 -0.003 -0.000  0.232
   27  C  0.0986  0.005  0.001  0.002  0.091
   28  C  0.1120  0.006  0.003  0.003  0.100
   29  C  0.0821  0.000 -0.000  0.000  0.082
   30  C  0.1040  0.002  0.003  0.001  0.099
   31  C -0.0059 -0.001 -0.003 -0.000 -0.001
   32  C  0.0032  0.000  0.001  0.001  0.001
   33  C  0.0031  0.000  0.001  0.001  0.001
   34  C  0.0003  0.000  0.000  0.000  0.000
   35  C  0.0872  0.001 -0.001  0.002  0.085
   36  C  0.1323  0.002  0.002  0.001  0.127
   37  O  0.2159  0.009 -0.001 -0.003  0.211
   38  H -0.0025 -0.003
   39  H -0.0001 -0.000
   40  H -0.0001 -0.000
   41  H -0.0001 -0.000
   42  H -0.0001 -0.000
   43  H -0.0001 -0.000
   44  H -0.0001 -0.000
   45  H -0.0000 -0.000
   46  H -0.0001 -0.000
   47  H -0.0000 -0.000
   48  H -0.0028 -0.003
   49  H -0.0040 -0.004
   50  N  0.0104  0.004 -0.000  0.014 -0.008
   51  C  0.0074  0.006  0.006 -0.002 -0.003
   52  C  0.0076  0.007  0.001  0.002 -0.002
   53  N  0.0197  0.000  0.003  0.010  0.006
   54  N  0.0183  0.000  0.005  0.007  0.006
   55  C -0.5207 -0.013 -0.202 -0.278 -0.027
   56  C  0.0996  0.006  0.037  0.047  0.010
   57  C -0.0946  0.008 -0.043 -0.061  0.001
   58  N -0.3579 -0.021 -0.131 -0.177 -0.028
   59  C -0.0761  0.009 -0.035 -0.054  0.003
   60  C  0.0841  0.005  0.031  0.040  0.008
   61  H  0.0154  0.015
   62  H -0.0024 -0.002
   63  H  0.0033  0.003
   64  H  0.0029  0.003
   65  H -0.0019 -0.002

 **********************
 *                    *
 * JOB ENDED NORMALLY *
 *                    *
 **********************



 TOTAL JOB TIME:            20.20 SECONDS

 == MOPAC DONE ==
