 *******************************************************************************
 ** Site#: 26130        For non-commercial use only     Version 16.299L 64BITS**
 *******************************************************************************
 ** Cite this program as: MOPAC2016, Version: 16.299L, James J. P. Stewart,   **
 ** Stewart Computational Chemistry, web: HTTP://OpenMOPAC.net. Days left: 350**
 *******************************************************************************
 **                                                                           **
 **                                MOPAC2016                                  **
 **                                                                           **
 *******************************************************************************

                              PM7 CALCULATION RESULTS


 *******************************************************************************
 *  CALCULATION DONE:                                Thu Nov 10 15:55:13 2016  *
 *  PM7        - The PM7 Hamiltonian to be used
 *  DOUBLET    - SPIN STATE DEFINED AS A DOUBLET
 *  UHF        - UNRESTRICTED HARTREE-FOCK CALCULATION
 *
 *
 *
 *                 CHARGE ON SYSTEM =    -2
 *
 *
 *
 *  XYZ        - CARTESIAN COORDINATE SYSTEM TO BE USED
 *  EF         - USE EF ROUTINE FOR MINIMUM SEARCH
 *  T=         - A TIME OF 172800.0 SECONDS REQUESTED
 *  DUMP=N     - RESTART FILE WRITTEN EVERY  7200.000 SECONDS
 *  HESSIAN    - WRITE OUT HESSIAN FROM GEOMERY OPTIMIZATION
 *******************************************************************************
 EF PM7 XYZ HESSIAN DOUBLET UHF CHARGE=-2
 1004_C_9_2

   ATOM   CHEMICAL          X               Y               Z
  NUMBER   SYMBOL      (ANGSTROMS)     (ANGSTROMS)     (ANGSTROMS)
 
     1      Cr          0.00000000  *   0.00000000  *   0.00000000  *
     2       O          0.00000000  *   2.09000000  *   0.00000000  *
     3       C          1.20040100  *   2.31081900  *   0.00017400  *
     4       C          2.30006000  *   1.21649100  *   0.00022800  *
     5       C          3.69546900  *   1.72087900  *   0.00058200  *
     6       C          4.04518800  *   3.13743900  *   0.00062500  *
     7       C          5.54818700  *   3.50299000  *   0.00074600  *
     8       C          6.22934700  *   2.93172300  *   1.26250500  *
     9       C          6.22956600  *   2.93154700  *  -1.26081800  *
    10       C          5.81737900  *   5.02932000  *   0.00066000  *
    11       C          3.05755100  *   4.05305900  *   0.00052100  *
    12       C          1.66623300  *   3.70855700  *   0.00035200  *
    13       O          2.08999900  *   0.00000100  *   0.00000000  *
    14       H          4.45846000  *   0.95242900  *   0.00075700  *
    15       H          5.75268300  *   3.31274000  *   2.17364500  *
    16       H          7.28819900  *   3.21258400  *   1.30022400  *
    17       H          6.18812500  *   1.83802700  *   1.29696000  *
    18       H          5.75308200  *   3.31247100  *  -2.17209100  *
    19       H          6.18830700  *   1.83784800  *  -1.29515300  *
    20       H          7.28843500  *   3.21235900  *  -1.29837400  *
    21       H          5.39694300  *   5.51417100  *  -0.88818000  *
    22       H          6.89378300  *   5.23962600  *   0.00074700  *
    23       H          5.39677800  *   5.51430200  *   0.88935100  *
    24       H          3.25941900  *   5.12112300  *   0.00054500  *
    25       H          0.90677100  *   4.48003800  *   0.00030000  *
    26       O          0.00000000  *  -2.09000000  *   0.00000000  *
    27       C         -1.20072400  *  -2.30923300  *   0.00007300  *
    28       C         -2.30154000  *  -1.21507100  *   0.00015200  *
    29       C         -3.69942300  *  -1.71470000  *   0.00070500  *
    30       C         -4.05043200  *  -3.13044700  *   0.00066400  *
    31       C         -5.55454000  *  -3.49437400  *   0.00057600  *
    32       C         -6.23762900  *  -2.92414800  *   1.26173500  *
    33       C         -6.23740500  *  -2.92405200  *  -1.26069900  *
    34       C         -5.82180600  *  -5.02116300  *   0.00038700  *
    35       C         -3.06345600  *  -4.04525400  *   0.00051800  *
    36       C         -1.67095900  *  -3.70501500  *   0.00042600  *
    37       O         -2.08999900  *  -0.00000100  *   0.00000000  *
    38       H         -4.45978800  *  -0.94430100  *   0.00103800  *
    39       H         -5.76004600  *  -3.30276000  *   2.17348000  *
    40       H         -7.29578800  *  -3.20841800  *   1.29996000  *
    41       H         -6.20007100  *  -1.83027900  *   1.29500000  *
    42       H         -5.75988200  *  -3.30258300  *  -2.17240200  *
    43       H         -6.19964700  *  -1.83005900  *  -1.29383000  *
    44       H         -7.29560300  *  -3.20803000  *  -1.29890600  *
    45       H         -5.40023400  *  -5.50523600  *  -0.88839900  *
    46       H         -6.89778300  *  -5.23368600  *   0.00029200  *
    47       H         -5.40036500  *  -5.50539200  *   0.88918000  *
    48       H         -3.26512300  *  -5.11250000  *   0.00041100  *
    49       H         -0.91339700  *  -4.47895600  *   0.00030100  *
    50       N          0.00000100  *  -0.00000100  *   2.20000000  *
    51       C          1.03263800  *   0.61250500  *   2.89187200  *
    52       C         -1.03263600  *  -0.61250700  *   2.89195600  *
    53       N         -1.89523300  *  -1.12426900  *   3.46947300  *
    54       N          1.89534600  *   1.12413500  *   3.46928300  *
    55       C          0.00016600  *  -0.00055300  *  -4.99709800  *
    56       C          0.98607300  *  -0.68562300  *  -4.29423100  *
    57       C          0.94279100  *  -0.65768000  *  -2.90934300  *
    58       N          0.00000600  *  -0.00000700  *  -2.20000000  *
    59       C         -0.94277900  *   0.65766500  *  -2.90984900  *
    60       C         -0.98521100  *   0.68486800  *  -4.29476900  *
    61       H          0.00038200  *  -0.00096700  *  -6.08329000  *
    62       H          1.76853100  *  -1.22815300  *  -4.81188200  *
    63       H          1.68792800  *  -1.17943100  *  -2.31568400  *
    64       H         -1.68768200  *   1.17986400  *  -2.31671300  *
    65       H         -1.76763000  *   1.22783100  *  -4.81293800  *
 


          CARTESIAN COORDINATES 

    NO.       ATOM         X         Y         Z

     1        Cr        0.0000    0.0000    0.0000
     2         O        0.0000    2.0900    0.0000
     3         C        1.2004    2.3108    0.0002
     4         C        2.3001    1.2165    0.0002
     5         C        3.6955    1.7209    0.0006
     6         C        4.0452    3.1374    0.0006
     7         C        5.5482    3.5030    0.0007
     8         C        6.2293    2.9317    1.2625
     9         C        6.2296    2.9315   -1.2608
    10         C        5.8174    5.0293    0.0007
    11         C        3.0576    4.0531    0.0005
    12         C        1.6662    3.7086    0.0004
    13         O        2.0900    0.0000    0.0000
    14         H        4.4585    0.9524    0.0008
    15         H        5.7527    3.3127    2.1736
    16         H        7.2882    3.2126    1.3002
    17         H        6.1881    1.8380    1.2970
    18         H        5.7531    3.3125   -2.1721
    19         H        6.1883    1.8378   -1.2952
    20         H        7.2884    3.2124   -1.2984
    21         H        5.3969    5.5142   -0.8882
    22         H        6.8938    5.2396    0.0007
    23         H        5.3968    5.5143    0.8894
    24         H        3.2594    5.1211    0.0005
    25         H        0.9068    4.4800    0.0003
    26         O        0.0000   -2.0900    0.0000
    27         C       -1.2007   -2.3092    0.0001
    28         C       -2.3015   -1.2151    0.0002
    29         C       -3.6994   -1.7147    0.0007
    30         C       -4.0504   -3.1304    0.0007
    31         C       -5.5545   -3.4944    0.0006
    32         C       -6.2376   -2.9241    1.2617
    33         C       -6.2374   -2.9241   -1.2607
    34         C       -5.8218   -5.0212    0.0004
    35         C       -3.0635   -4.0453    0.0005
    36         C       -1.6710   -3.7050    0.0004
    37         O       -2.0900   -0.0000    0.0000
    38         H       -4.4598   -0.9443    0.0010
    39         H       -5.7600   -3.3028    2.1735
    40         H       -7.2958   -3.2084    1.3000
    41         H       -6.2001   -1.8303    1.2950
    42         H       -5.7599   -3.3026   -2.1724
    43         H       -6.1996   -1.8301   -1.2938
    44         H       -7.2956   -3.2080   -1.2989
    45         H       -5.4002   -5.5052   -0.8884
    46         H       -6.8978   -5.2337    0.0003
    47         H       -5.4004   -5.5054    0.8892
    48         H       -3.2651   -5.1125    0.0004
    49         H       -0.9134   -4.4790    0.0003
    50         N        0.0000   -0.0000    2.2000
    51         C        1.0326    0.6125    2.8919
    52         C       -1.0326   -0.6125    2.8920
    53         N       -1.8952   -1.1243    3.4695
    54         N        1.8953    1.1241    3.4693
    55         C        0.0002   -0.0006   -4.9971
    56         C        0.9861   -0.6856   -4.2942
    57         C        0.9428   -0.6577   -2.9093
    58         N        0.0000   -0.0000   -2.2000
    59         C       -0.9428    0.6577   -2.9098
    60         C       -0.9852    0.6849   -4.2948
    61         H        0.0004   -0.0010   -6.0833
    62         H        1.7685   -1.2282   -4.8119
    63         H        1.6879   -1.1794   -2.3157
    64         H       -1.6877    1.1799   -2.3167
    65         H       -1.7676    1.2278   -4.8129

 General Reference for PM7:
 "Optimization of Parameters for Semiempirical Methods VI: More Modifications to the 
 NDDO Approximations and Re-optimization of Parameters", J. J. P. Stewart, J. Mol. Mod., 1:32, 19 (2013)
 http://www.springerlink.com/openurl.asp?genre=article&id=doi:10.1007/s00894-012-1667-x

           Empirical Formula: C27 H29 N4 O4 Cr  =    65 atoms



      MOLECULAR POINT GROUP   :   C2  


 DOUBLET STATE CALCULATION


          UHF CALCULATION, NO. OF ALPHA ELECTRONS =   95
                           NO. OF BETA  ELECTRONS =   94

          Geometry optimization using EF

          DIAGONAL MATRIX USED AS START HESSIAN

 CYCLE:     1 TIME:   0.730 TIME LEFT:  2.00D  GRAD.:   432.816 HEAT: -66.91445
 CYCLE:     2 TIME:   0.176 TIME LEFT:  2.00D  GRAD.:   312.447 HEAT: -113.5173
 CYCLE:     3 TIME:   0.219 TIME LEFT:  2.00D  GRAD.:   339.568 HEAT: -125.0603
 CYCLE:     4 TIME:   0.102 TIME LEFT:  2.00D  GRAD.:   172.818 HEAT: -141.6610
 CYCLE:     5 TIME:   0.199 TIME LEFT:  2.00D  GRAD.:   106.192 HEAT: -148.7123
 CYCLE:     6 TIME:   0.105 TIME LEFT:  2.00D  GRAD.:   119.709 HEAT: -152.7106
 CYCLE:     7 TIME:   0.199 TIME LEFT:  2.00D  GRAD.:   164.846 HEAT: -153.3455
 CYCLE:     8 TIME:   0.191 TIME LEFT:  2.00D  GRAD.:    59.759 HEAT: -155.5658
 CYCLE:     9 TIME:   0.102 TIME LEFT:  2.00D  GRAD.:    74.451 HEAT: -155.7403
 CYCLE:    10 TIME:   0.105 TIME LEFT:  2.00D  GRAD.:    39.107 HEAT: -157.1649
 CYCLE:    11 TIME:   0.191 TIME LEFT:  2.00D  GRAD.:    46.347 HEAT: -157.4286
 CYCLE:    12 TIME:   0.109 TIME LEFT:  2.00D  GRAD.:    27.584 HEAT: -158.2318
 CYCLE:    13 TIME:   0.188 TIME LEFT:  2.00D  GRAD.:    34.944 HEAT: -158.5297
 CYCLE:    14 TIME:   0.098 TIME LEFT:  2.00D  GRAD.:    24.181 HEAT: -159.1071
 CYCLE:    15 TIME:   0.125 TIME LEFT:  2.00D  GRAD.:    62.623 HEAT: -159.3340
 CYCLE:    16 TIME:   0.105 TIME LEFT:  2.00D  GRAD.:    61.774 HEAT: -159.9835
 CYCLE:    17 TIME:   0.277 TIME LEFT:  2.00D  GRAD.:    40.950 HEAT: -160.5521
 CYCLE:    18 TIME:   0.098 TIME LEFT:  2.00D  GRAD.:    35.182 HEAT: -160.7204
 CYCLE:    19 TIME:   0.094 TIME LEFT:  2.00D  GRAD.:    43.595 HEAT: -160.9961
 CYCLE:    20 TIME:   0.188 TIME LEFT:  2.00D  GRAD.:    21.577 HEAT: -161.2294
 CYCLE:    21 TIME:   0.094 TIME LEFT:  2.00D  GRAD.:    29.077 HEAT: -161.3524
 CYCLE:    22 TIME:   0.098 TIME LEFT:  2.00D  GRAD.:    18.561 HEAT: -161.5905
 CYCLE:    23 TIME:   0.098 TIME LEFT:  2.00D  GRAD.:    25.175 HEAT: -161.7276
 CYCLE:    24 TIME:   0.098 TIME LEFT:  2.00D  GRAD.:    19.564 HEAT: -161.9872
 CYCLE:    25 TIME:   0.188 TIME LEFT:  2.00D  GRAD.:    23.323 HEAT: -162.0782
 CYCLE:    26 TIME:   0.074 TIME LEFT:  2.00D  GRAD.:    16.737 HEAT: -162.2638
 CYCLE:    27 TIME:   0.180 TIME LEFT:  2.00D  GRAD.:    23.163 HEAT: -162.3068
 CYCLE:    28 TIME:   0.090 TIME LEFT:  2.00D  GRAD.:    10.562 HEAT: -162.4536
 CYCLE:    29 TIME:   0.180 TIME LEFT:  2.00D  GRAD.:    14.738 HEAT: -162.4963
 CYCLE:    30 TIME:   0.090 TIME LEFT:  2.00D  GRAD.:     6.999 HEAT: -162.5836
 CYCLE:    31 TIME:   0.094 TIME LEFT:  2.00D  GRAD.:    13.264 HEAT: -162.6719
 CYCLE:    32 TIME:   0.098 TIME LEFT:  2.00D  GRAD.:    12.730 HEAT: -162.8301
 CYCLE:    33 TIME:   0.184 TIME LEFT:  2.00D  GRAD.:    21.781 HEAT: -162.8480
 CYCLE:    34 TIME:   0.078 TIME LEFT:  2.00D  GRAD.:    10.931 HEAT: -163.0103
 CYCLE:    35 TIME:   0.180 TIME LEFT:  2.00D  GRAD.:    15.823 HEAT: -163.0306
 CYCLE:    36 TIME:   0.094 TIME LEFT:  2.00D  GRAD.:    10.308 HEAT: -163.1221
 CYCLE:    37 TIME:   0.180 TIME LEFT:  2.00D  GRAD.:    10.989 HEAT: -163.1559
 CYCLE:    38 TIME:   0.094 TIME LEFT:  2.00D  GRAD.:     8.643 HEAT: -163.2065
 CYCLE:    39 TIME:   0.094 TIME LEFT:  2.00D  GRAD.:    14.089 HEAT: -163.2433
 CYCLE:    40 TIME:   0.094 TIME LEFT:  2.00D  GRAD.:     9.849 HEAT: -163.3171
 CYCLE:    41 TIME:   0.098 TIME LEFT:  2.00D  GRAD.:    13.929 HEAT: -163.3724
 CYCLE:    42 TIME:   0.094 TIME LEFT:  2.00D  GRAD.:    14.059 HEAT: -163.4804
 CYCLE:    43 TIME:   0.105 TIME LEFT:  2.00D  GRAD.:    27.143 HEAT: -163.5431
 CYCLE:    44 TIME:   0.121 TIME LEFT:  2.00D  GRAD.:    25.230 HEAT: -164.1197
 CYCLE:    45 TIME:   0.133 TIME LEFT:  2.00D  GRAD.:    48.440 HEAT: -165.5097
 CYCLE:    46 TIME:   0.105 TIME LEFT:  2.00D  GRAD.:    68.564 HEAT: -165.9465
 CYCLE:    47 TIME:   0.242 TIME LEFT:  2.00D  GRAD.:    68.512 HEAT: -166.3514
 CYCLE:    48 TIME:   0.199 TIME LEFT:  2.00D  GRAD.:    37.409 HEAT: -167.4249
 CYCLE:    49 TIME:   0.199 TIME LEFT:  2.00D  GRAD.:    30.028 HEAT: -167.7403
 CYCLE:    50 TIME:   0.102 TIME LEFT:  2.00D  GRAD.:    31.472 HEAT: -167.7858
 CYCLE:    51 TIME:   0.098 TIME LEFT:  2.00D  GRAD.:    24.393 HEAT: -168.0143
 CYCLE:    52 TIME:   0.098 TIME LEFT:  2.00D  GRAD.:    30.400 HEAT: -168.0216
 CYCLE:    53 TIME:   0.348 TIME LEFT:  2.00D  GRAD.:    15.461 HEAT: -168.2145
 CYCLE:    54 TIME:   0.184 TIME LEFT:  2.00D  GRAD.:     8.673 HEAT: -168.2953
 CYCLE:    55 TIME:   0.094 TIME LEFT:  2.00D  GRAD.:    14.897 HEAT: -168.3059
 CYCLE:    56 TIME:   0.094 TIME LEFT:  2.00D  GRAD.:    10.176 HEAT: -168.3879
 CYCLE:    57 TIME:   0.184 TIME LEFT:  2.00D  GRAD.:    10.302 HEAT: -168.4001
 CYCLE:    58 TIME:   0.094 TIME LEFT:  2.00D  GRAD.:     8.073 HEAT: -168.4491
 CYCLE:    59 TIME:   0.078 TIME LEFT:  2.00D  GRAD.:    12.202 HEAT: -168.4589
 CYCLE:    60 TIME:   0.094 TIME LEFT:  2.00D  GRAD.:    14.721 HEAT: -168.4942
 CYCLE:    61 TIME:   0.090 TIME LEFT:  2.00D  GRAD.:     9.833 HEAT: -168.5232
 CYCLE:    62 TIME:   0.090 TIME LEFT:  2.00D  GRAD.:    10.899 HEAT: -168.5641
 CYCLE:    63 TIME:   0.180 TIME LEFT:  2.00D  GRAD.:    10.549 HEAT: -168.5780
 CYCLE:    64 TIME:   0.090 TIME LEFT:  2.00D  GRAD.:    11.120 HEAT: -168.6018
 CYCLE:    65 TIME:   0.094 TIME LEFT:  2.00D  GRAD.:    10.404 HEAT: -168.6184
 CYCLE:    66 TIME:   0.094 TIME LEFT:  2.00D  GRAD.:     7.064 HEAT: -168.6520
 CYCLE:    67 TIME:   0.074 TIME LEFT:  2.00D  GRAD.:    13.870 HEAT: -168.6587
 CYCLE:    68 TIME:   0.094 TIME LEFT:  2.00D  GRAD.:     5.390 HEAT: -168.7145
 CYCLE:    69 TIME:   0.258 TIME LEFT:  2.00D  GRAD.:    10.079 HEAT: -168.7192
 CYCLE:    70 TIME:   0.094 TIME LEFT:  2.00D  GRAD.:     2.503 HEAT: -168.7510
 CYCLE:    71 TIME:   0.098 TIME LEFT:  2.00D  GRAD.:     3.575 HEAT: -168.7728
 CYCLE:    72 TIME:   0.102 TIME LEFT:  2.00D  GRAD.:     4.377 HEAT: -168.8170
 CYCLE:    73 TIME:   0.105 TIME LEFT:  2.00D  GRAD.:     7.067 HEAT: -168.8948
 CYCLE:    74 TIME:   0.082 TIME LEFT:  2.00D  GRAD.:     8.973 HEAT: -169.0413
 CYCLE:    75 TIME:   0.074 TIME LEFT:  2.00D  GRAD.:    16.131 HEAT: -169.2681
 CYCLE:    76 TIME:   0.078 TIME LEFT:  2.00D  GRAD.:    26.465 HEAT: -169.3921
 CYCLE:    77 TIME:   0.082 TIME LEFT:  2.00D  GRAD.:    26.792 HEAT: -169.5471
 CYCLE:    78 TIME:   0.070 TIME LEFT:  2.00D  GRAD.:    29.440 HEAT: -169.6018
 CYCLE:    79 TIME:   0.148 TIME LEFT:  2.00D  GRAD.:    36.181 HEAT: -169.7742
 CYCLE:    80 TIME:   0.207 TIME LEFT:  2.00D  GRAD.:    19.536 HEAT: -169.9867
 CYCLE:    81 TIME:   0.070 TIME LEFT:  2.00D  GRAD.:    20.091 HEAT: -170.0300
 CYCLE:    82 TIME:   0.074 TIME LEFT:  2.00D  GRAD.:    21.710 HEAT: -170.0814
 CYCLE:    83 TIME:   0.070 TIME LEFT:  2.00D  GRAD.:    15.904 HEAT: -170.1506
 CYCLE:    84 TIME:   0.066 TIME LEFT:  2.00D  GRAD.:    19.492 HEAT: -170.1830
 CYCLE:    85 TIME:   0.070 TIME LEFT:  2.00D  GRAD.:    14.711 HEAT: -170.2339
 CYCLE:    86 TIME:   0.074 TIME LEFT:  2.00D  GRAD.:    21.226 HEAT: -170.2682
 CYCLE:    87 TIME:   0.070 TIME LEFT:  2.00D  GRAD.:    15.231 HEAT: -170.3037
 CYCLE:    88 TIME:   0.066 TIME LEFT:  2.00D  GRAD.:    13.118 HEAT: -170.3867
 CYCLE:    89 TIME:   0.129 TIME LEFT:  2.00D  GRAD.:    14.589 HEAT: -170.4039
 CYCLE:    90 TIME:   0.066 TIME LEFT:  2.00D  GRAD.:     8.854 HEAT: -170.4667
 CYCLE:    91 TIME:   0.070 TIME LEFT:  2.00D  GRAD.:    13.570 HEAT: -170.4696
 CYCLE:    92 TIME:   0.066 TIME LEFT:  2.00D  GRAD.:     9.761 HEAT: -170.5534
 CYCLE:    93 TIME:   0.195 TIME LEFT:  2.00D  GRAD.:     6.771 HEAT: -170.5799
 CYCLE:    94 TIME:   0.066 TIME LEFT:  2.00D  GRAD.:     5.073 HEAT: -170.6023
 CYCLE:    95 TIME:   0.062 TIME LEFT:  2.00D  GRAD.:     6.408 HEAT: -170.6257
 CYCLE:    96 TIME:   0.066 TIME LEFT:  2.00D  GRAD.:     5.031 HEAT: -170.6640
 CYCLE:    97 TIME:   0.062 TIME LEFT:  2.00D  GRAD.:     7.619 HEAT: -170.7129
 CYCLE:    98 TIME:   0.070 TIME LEFT:  2.00D  GRAD.:     8.370 HEAT: -170.7764
 CYCLE:    99 TIME:   0.070 TIME LEFT:  2.00D  GRAD.:     9.746 HEAT: -170.8757
 CYCLE:   100 TIME:   0.070 TIME LEFT:  2.00D  GRAD.:    19.615 HEAT: -171.0007
 CYCLE:   101 TIME:   0.074 TIME LEFT:  2.00D  GRAD.:    20.020 HEAT: -171.1765
 CYCLE:   102 TIME:   0.074 TIME LEFT:  2.00D  GRAD.:    20.657 HEAT: -171.2785
 CYCLE:   103 TIME:   0.141 TIME LEFT:  2.00D  GRAD.:    24.679 HEAT: -171.4150
 CYCLE:   104 TIME:   0.191 TIME LEFT:  2.00D  GRAD.:    26.398 HEAT: -171.4703
 CYCLE:   105 TIME:   0.070 TIME LEFT:  2.00D  GRAD.:    22.908 HEAT: -171.5450
 CYCLE:   106 TIME:   0.066 TIME LEFT:  2.00D  GRAD.:    18.982 HEAT: -171.5945
 CYCLE:   107 TIME:   0.066 TIME LEFT:  2.00D  GRAD.:    13.485 HEAT: -171.6725
 CYCLE:   108 TIME:   0.133 TIME LEFT:  2.00D  GRAD.:    14.426 HEAT: -171.6771
 CYCLE:   109 TIME:   0.062 TIME LEFT:  2.00D  GRAD.:     8.573 HEAT: -171.7363
 CYCLE:   110 TIME:   0.070 TIME LEFT:  2.00D  GRAD.:    12.435 HEAT: -171.7539
 CYCLE:   111 TIME:   0.070 TIME LEFT:  2.00D  GRAD.:    12.701 HEAT: -171.7914
 CYCLE:   112 TIME:   0.066 TIME LEFT:  2.00D  GRAD.:     7.540 HEAT: -171.8393
 CYCLE:   113 TIME:   0.066 TIME LEFT:  2.00D  GRAD.:    13.928 HEAT: -171.8461
 CYCLE:   114 TIME:   0.070 TIME LEFT:  2.00D  GRAD.:     8.648 HEAT: -171.9287
 CYCLE:   115 TIME:   0.066 TIME LEFT:  2.00D  GRAD.:    13.307 HEAT: -171.9424
 CYCLE:   116 TIME:   0.070 TIME LEFT:  2.00D  GRAD.:    10.515 HEAT: -172.0352
 CYCLE:   117 TIME:   0.254 TIME LEFT:  2.00D  GRAD.:     4.975 HEAT: -172.0647
 CYCLE:   118 TIME:   0.078 TIME LEFT:  2.00D  GRAD.:     4.609 HEAT: -172.0813
 CYCLE:   119 TIME:   0.086 TIME LEFT:  2.00D  GRAD.:     6.334 HEAT: -172.1008
 CYCLE:   120 TIME:   0.070 TIME LEFT:  2.00D  GRAD.:     6.281 HEAT: -172.1294
 CYCLE:   121 TIME:   0.074 TIME LEFT:  2.00D  GRAD.:     7.571 HEAT: -172.1625
 CYCLE:   122 TIME:   0.082 TIME LEFT:  2.00D  GRAD.:     7.089 HEAT: -172.2178
 CYCLE:   123 TIME:   0.098 TIME LEFT:  2.00D  GRAD.:    11.733 HEAT: -172.2685
 CYCLE:   124 TIME:   0.102 TIME LEFT:  2.00D  GRAD.:    19.193 HEAT: -172.2936
 CYCLE:   125 TIME:   0.102 TIME LEFT:  2.00D  GRAD.:    18.931 HEAT: -172.3594
 CYCLE:   126 TIME:   0.191 TIME LEFT:  2.00D  GRAD.:    19.186 HEAT: -172.3879
 CYCLE:   127 TIME:   0.098 TIME LEFT:  2.00D  GRAD.:    17.991 HEAT: -172.4739
 CYCLE:   128 TIME:   0.281 TIME LEFT:  2.00D  GRAD.:     6.263 HEAT: -172.5668
 CYCLE:   129 TIME:   0.074 TIME LEFT:  2.00D  GRAD.:     8.588 HEAT: -172.5728
 CYCLE:   130 TIME:   0.094 TIME LEFT:  2.00D  GRAD.:     5.096 HEAT: -172.6026
 CYCLE:   131 TIME:   0.258 TIME LEFT:  2.00D  GRAD.:     5.225 HEAT: -172.6101
 CYCLE:   132 TIME:   0.090 TIME LEFT:  2.00D  GRAD.:     1.784 HEAT: -172.6212
 CYCLE:   133 TIME:   0.098 TIME LEFT:  2.00D  GRAD.:     2.794 HEAT: -172.6329
 CYCLE:   134 TIME:   0.094 TIME LEFT:  2.00D  GRAD.:     3.114 HEAT: -172.6544
 CYCLE:   135 TIME:   0.098 TIME LEFT:  2.00D  GRAD.:     5.433 HEAT: -172.6923
 CYCLE:   136 TIME:   0.094 TIME LEFT:  2.00D  GRAD.:     6.465 HEAT: -172.7448
 CYCLE:   137 TIME:   0.098 TIME LEFT:  2.00D  GRAD.:    11.180 HEAT: -172.8007
 CYCLE:   138 TIME:   0.102 TIME LEFT:  2.00D  GRAD.:    16.786 HEAT: -172.8338
 CYCLE:   139 TIME:   0.102 TIME LEFT:  2.00D  GRAD.:    16.205 HEAT: -172.8850
 CYCLE:   140 TIME:   0.246 TIME LEFT:  2.00D  GRAD.:    17.508 HEAT: -172.9054
 CYCLE:   141 TIME:   0.098 TIME LEFT:  2.00D  GRAD.:     8.913 HEAT: -172.9394
 CYCLE:   142 TIME:   0.273 TIME LEFT:  2.00D  GRAD.:     7.187 HEAT: -172.9675
 CYCLE:   143 TIME:   0.090 TIME LEFT:  2.00D  GRAD.:     5.860 HEAT: -172.9724
 CYCLE:   144 TIME:   0.094 TIME LEFT:  2.00D  GRAD.:     4.947 HEAT: -172.9834
 CYCLE:   145 TIME:   0.078 TIME LEFT:  2.00D  GRAD.:     3.453 HEAT: -172.9922
 CYCLE:   146 TIME:   0.090 TIME LEFT:  2.00D  GRAD.:     3.176 HEAT: -173.0039
 CYCLE:   147 TIME:   0.090 TIME LEFT:  2.00D  GRAD.:     3.813 HEAT: -173.0212
 CYCLE:   148 TIME:   0.098 TIME LEFT:  2.00D  GRAD.:     4.694 HEAT: -173.0558
 CYCLE:   149 TIME:   0.094 TIME LEFT:  2.00D  GRAD.:     5.026 HEAT: -173.0880
 CYCLE:   150 TIME:   0.102 TIME LEFT:  2.00D  GRAD.:     6.671 HEAT: -173.0984
 CYCLE:   151 TIME:   0.094 TIME LEFT:  2.00D  GRAD.:     8.829 HEAT: -173.1093
 CYCLE:   152 TIME:   0.277 TIME LEFT:  2.00D  GRAD.:     9.112 HEAT: -173.1137
 CYCLE:   153 TIME:   0.094 TIME LEFT:  2.00D  GRAD.:     6.592 HEAT: -173.1353
 CYCLE:   154 TIME:   0.094 TIME LEFT:  2.00D  GRAD.:     5.047 HEAT: -173.1439
 CYCLE:   155 TIME:   0.090 TIME LEFT:  2.00D  GRAD.:     5.287 HEAT: -173.1517
 CYCLE:   156 TIME:   0.074 TIME LEFT:  2.00D  GRAD.:     3.579 HEAT: -173.1584
 CYCLE:   157 TIME:   0.098 TIME LEFT:  2.00D  GRAD.:     3.334 HEAT: -173.1674
 CYCLE:   158 TIME:   0.086 TIME LEFT:  2.00D  GRAD.:     3.665 HEAT: -173.1724
 CYCLE:   159 TIME:   0.102 TIME LEFT:  2.00D  GRAD.:     3.800 HEAT: -173.1805
 CYCLE:   160 TIME:   0.090 TIME LEFT:  2.00D  GRAD.:     4.081 HEAT: -173.1845
 CYCLE:   161 TIME:   0.098 TIME LEFT:  2.00D  GRAD.:     2.744 HEAT: -173.1900
 CYCLE:   162 TIME:   0.094 TIME LEFT:  2.00D  GRAD.:     1.563 HEAT: -173.1946
 CYCLE:   163 TIME:   0.105 TIME LEFT:  2.00D  GRAD.:     1.291 HEAT: -173.1973
 CYCLE:   164 TIME:   0.098 TIME LEFT:  2.00D  GRAD.:     1.157 HEAT: -173.1998
 CYCLE:   165 TIME:   0.109 TIME LEFT:  2.00D  GRAD.:     0.972 HEAT: -173.2025

     GRADIENT =  0.97153  IS LESS THAN CUTOFF =  1.00000



 -------------------------------------------------------------------------------
 EF PM7 XYZ HESSIAN DOUBLET UHF CHARGE=-2
 1004_C_9_2



     GEOMETRY OPTIMISED USING EIGENVECTOR FOLLOWING (EF).     
     SCF FIELD WAS ACHIEVED                                   


                              PM7 CALCULATION
                                                       MOPAC2016 (Version: 16.299L)
                                                       Thu Nov 10 15:55:32 2016
                                                       No. of days remaining = 350




          FINAL HEAT OF FORMATION =       -173.20257 KCAL/MOL =    -724.67955 KJ/MOL


          TOTAL ENERGY            =      -5907.49796 EV
          ELECTRONIC ENERGY       =     -57538.91838 EV  POINT GROUP:     C1  
          CORE-CORE REPULSION     =      51631.42042 EV
          COSMO AREA              =        492.62 SQUARE ANGSTROMS
          COSMO VOLUME            =        602.36 CUBIC ANGSTROMS

          GRADIENT NORM           =          0.97153
          IONIZATION POTENTIAL    =          1.048528 EV
          ALPHA SOMO LUMO (EV)    =         -1.049  6.018
          BETA  SOMO LUMO (EV)    =         -1.981  5.490
          NO. OF ALPHA ELECTRONS  =         95
          NO. OF BETA  ELECTRONS  =         94
          MOLECULAR WEIGHT        =        525.5465

          MOLECULAR DIMENSIONS (Angstroms)

            Atom       Atom       Distance
            H    46    H    22    17.18978
            H    61    N    54     9.31239
            H    25    H    62     6.03246


          SCF CALCULATIONS        =        213
 
          WALL-CLOCK TIME         =         19.598 SECONDS
          COMPUTATION TIME        =  1 MINUTE AND 14.190 SECONDS




   ATOM   CHEMICAL          X               Y               Z
  NUMBER   SYMBOL      (ANGSTROMS)     (ANGSTROMS)     (ANGSTROMS)
 
     1      Cr         -0.01156876  *  -0.00654032  *  -0.02438918  *
     2       O          0.06149748  *   1.89928916  *   0.07084151  *
     3       C          1.27365802  *   2.40905595  *   0.03813417  *
     4       C          2.33152710  *   1.41195910  *   0.04576285  *
     5       C          3.65366503  *   1.79719691  *   0.00108503  *
     6       C          3.96405159  *   3.17952467  *  -0.05069034  *
     7       C          5.43007639  *   3.56065774  *  -0.11526115  *
     8       C          6.14647248  *   3.03308647  *   1.14607004  *
     9       C          6.05957716  *   2.93014731  *  -1.37643272  *
    10       C          5.66086870  *   5.08582820  *  -0.18712898  *
    11       C          2.95361058  *   4.12095767  *  -0.04618028  *
    12       C          1.58992683  *   3.74781101  *  -0.00148727  *
    13       O          1.89804157  *   0.17494199  *   0.09415178  *
    14       H          4.43005496  *   1.04694448  *   0.00547675  *
    15       H          5.68924807  *   3.45606533  *   2.04682214  *
    16       H          7.20674324  *   3.28093562  *   1.14316332  *
    17       H          6.04731288  *   1.94334924  *   1.22267699  *
    18       H          5.51700465  *   3.25376035  *  -2.27158856  *
    19       H          5.98974305  *   1.83666200  *  -1.34146505  *
    20       H          7.10803741  *   3.20311862  *  -1.48576857  *
    21       H          5.17453175  *   5.51008383  *  -1.07090432  *
    22       H          6.72400996  *   5.32266716  *  -0.24182170  *
    23       H          5.24934855  *   5.58348297  *   0.69624867  *
    24       H          3.17305423  *   5.17950555  *  -0.07802822  *
    25       H          0.81416850  *   4.49755485  *  -0.00109369  *
    26       O         -0.08922099  *  -1.91594669  *  -0.02980946  *
    27       C         -1.30213725  *  -2.42334762  *  -0.01248390  *
    28       C         -2.35894510  *  -1.42548200  *  -0.03677661  *
    29       C         -3.68214585  *  -1.80938396  *  -0.03026045  *
    30       C         -3.99562843  *  -3.19166517  *  -0.00252090  *
    31       C         -5.46289523  *  -3.57300875  *  -0.00184628  *
    32       C         -6.13221509  *  -3.00217523  *   1.26631193  *
    33       C         -6.14112823  *  -2.98564156  *  -1.25862928  *
    34       C         -5.69500926  *  -5.09968401  *  -0.01371708  *
    35       C         -2.98601650  *  -4.13369798  *   0.02500062  *
    36       C         -1.62130909  *  -3.76173935  *   0.02092085  *
    37       O         -1.92362501  *  -0.18838596  *  -0.06558445  *
    38       H         -4.45755040  *  -1.05796708  *  -0.04156579  *
    39       H         -5.64199524  *  -3.39490214  *   2.16368456  *
    40       H         -7.19185097  *  -3.24932013  *   1.31108471  *
    41       H         -6.03038238  *  -1.91055194  *   1.30246593  *
    42       H         -5.64059289  *  -3.34699397  *  -2.16311971  *
    43       H         -6.06384349  *  -1.89201728  *  -1.26795537  *
    44       H         -7.19520606  *  -3.25368776  *  -1.31214771  *
    45       H         -5.24115816  *  -5.55386428  *  -0.89976646  *
    46       H         -6.75923697  *  -5.33761953  *  -0.02062972  *
    47       H         -5.25080763  *  -5.56716323  *   0.87034238  *
    48       H         -3.20691052  *  -5.19198794  *   0.05157820  *
    49       H         -0.84675061  *  -4.51250839  *   0.04625352  *
    50       N         -0.05676952  *  -0.03183567  *   1.96088352  *
    51       C          0.79323652  *  -0.79539151  *   2.68298356  *
    52       C         -0.97646830  *   0.67177294  *   2.65855947  *
    53       N         -1.78202281  *   1.29264484  *   3.23073779  *
    54       N          1.54270907  *  -1.46437216  *   3.27657698  *
    55       C          0.20769676  *   0.15473365  *  -4.72860777  *
    56       C          1.08895949  *  -0.66573877  *  -3.98843932  *
    57       C          0.99131042  *  -0.72143171  *  -2.61893555  *
    58       N          0.04114680  *   0.01674966  *  -1.90126483  *
    59       C         -0.83141146  *   0.81589882  *  -2.65104166  *
    60       C         -0.76546215  *   0.89624592  *  -4.02149758  *
    61       H          0.27562568  *   0.21280255  *  -5.79693848  *
    62       H          1.83874208  *  -1.24459745  *  -4.50907224  *
    63       H          1.65340279  *  -1.34302007  *  -1.99825899  *
    64       H         -1.57163828  *   1.37113694  *  -2.05649281  *
    65       H         -1.45520473  *   1.52409288  *  -4.56772299  *

                             CARTESIAN COORDINATES

   1   Cr       -0.011568756    -0.006540316    -0.024389178
   2    O        0.061497481     1.899289157     0.070841507
   3    C        1.273658021     2.409055953     0.038134174
   4    C        2.331527095     1.411959099     0.045762846
   5    C        3.653665027     1.797196914     0.001085035
   6    C        3.964051592     3.179524674    -0.050690341
   7    C        5.430076393     3.560657737    -0.115261154
   8    C        6.146472478     3.033086468     1.146070037
   9    C        6.059577158     2.930147306    -1.376432720
  10    C        5.660868697     5.085828200    -0.187128979
  11    C        2.953610585     4.120957669    -0.046180283
  12    C        1.589926825     3.747811007    -0.001487273
  13    O        1.898041574     0.174941995     0.094151784
  14    H        4.430054964     1.046944481     0.005476753
  15    H        5.689248069     3.456065329     2.046822136
  16    H        7.206743244     3.280935620     1.143163324
  17    H        6.047312875     1.943349236     1.222676994
  18    H        5.517004650     3.253760353    -2.271588558
  19    H        5.989743050     1.836661997    -1.341465050
  20    H        7.108037408     3.203118622    -1.485768573
  21    H        5.174531750     5.510083832    -1.070904321
  22    H        6.724009960     5.322667161    -0.241821701
  23    H        5.249348554     5.583482966     0.696248674
  24    H        3.173054234     5.179505553    -0.078028222
  25    H        0.814168495     4.497554845    -0.001093685
  26    O       -0.089220993    -1.915946694    -0.029809457
  27    C       -1.302137249    -2.423347618    -0.012483900
  28    C       -2.358945103    -1.425482001    -0.036776607
  29    C       -3.682145847    -1.809383959    -0.030260454
  30    C       -3.995628429    -3.191665166    -0.002520897
  31    C       -5.462895234    -3.573008755    -0.001846281
  32    C       -6.132215093    -3.002175230     1.266311931
  33    C       -6.141128225    -2.985641562    -1.258629276
  34    C       -5.695009262    -5.099684011    -0.013717083
  35    C       -2.986016499    -4.133697984     0.025000617
  36    C       -1.621309086    -3.761739354     0.020920850
  37    O       -1.923625009    -0.188385963    -0.065584447
  38    H       -4.457550403    -1.057967082    -0.041565792
  39    H       -5.641995238    -3.394902145     2.163684557
  40    H       -7.191850975    -3.249320128     1.311084715
  41    H       -6.030382382    -1.910551943     1.302465932
  42    H       -5.640592891    -3.346993974    -2.163119709
  43    H       -6.063843493    -1.892017279    -1.267955372
  44    H       -7.195206060    -3.253687755    -1.312147705
  45    H       -5.241158158    -5.553864283    -0.899766464
  46    H       -6.759236969    -5.337619533    -0.020629723
  47    H       -5.250807629    -5.567163226     0.870342375
  48    H       -3.206910524    -5.191987943     0.051578198
  49    H       -0.846750608    -4.512508387     0.046253520
  50    N       -0.056769521    -0.031835675     1.960883516
  51    C        0.793236520    -0.795391506     2.682983560
  52    C       -0.976468301     0.671772942     2.658559471
  53    N       -1.782022807     1.292644835     3.230737785
  54    N        1.542709073    -1.464372160     3.276576985
  55    C        0.207696764     0.154733649    -4.728607773
  56    C        1.088959488    -0.665738768    -3.988439317
  57    C        0.991310422    -0.721431706    -2.618935545
  58    N        0.041146797     0.016749660    -1.901264830
  59    C       -0.831411464     0.815898819    -2.651041655
  60    C       -0.765462151     0.896245924    -4.021497576
  61    H        0.275625683     0.212802553    -5.796938479
  62    H        1.838742076    -1.244597455    -4.509072242
  63    H        1.653402787    -1.343020071    -1.998258989
  64    H       -1.571638276     1.371136944    -2.056492815
  65    H       -1.455204733     1.524092882    -4.567722993


           Empirical Formula: C27 H29 N4 O4 Cr  =    65 atoms

    Hessian matrix from geometry optimization
  650.3575
  170.6700  657.0748
    2.4843   -4.9889  541.6122
  -59.0099   44.8739  -10.1646  921.2459
  -53.0787 -210.5230    5.9883  212.7946  477.5948
    1.7488   -6.1159  -65.0365  -12.9291    3.0900  206.0919
   29.7782 -156.6914   21.2413 -702.5280 -116.5047   -4.4262 1301.9346
  -53.0213  -56.5261   17.3748 -257.4414 -120.5053   -4.0646  230.1603 1704.4546
  -20.7695    5.1239   27.4513   13.5251   -4.7639  -62.1635   -7.8376  -42.6292  314.1775
  -88.9452   -9.9578    8.6854 -164.0772  -27.1442    8.0657 -282.0128  189.3374    2.2778 1668.0841
 -113.5479  -19.8550  -40.9432   22.0743    6.1732   -8.6638  229.0982 -249.1834   16.0470  263.4986
 1445.0517
    6.8976   -4.7372    5.8415   -0.9656   -0.7473   21.9031    0.7570   39.4994 -108.5755   -9.1182
  -33.1043  345.6909
  -27.5192  -25.9540   10.9118   31.5410   46.0863   -5.8461  -95.0717   74.0568    5.3853 -807.3251
 -199.9853   14.0809 1418.9904
   36.5090  -34.3969   15.7102   23.3109   10.3907   11.7198  -25.9775   96.0587  -11.6251  -83.5365
 -150.6149   20.4315  148.8983 1268.0350
   20.2892   -9.8286  -46.7928   -4.3907   12.4668  -10.4219   17.9921  -16.1352   51.7739   -9.5386
   27.4928 -121.0839  -17.0191  -22.2719  302.8983
  -17.1368   -2.0721   -8.9544   11.2486   10.9278    0.8828   -3.3369   14.4041   -4.1330  -14.5972
  -86.7644   11.3451 -194.0262 -194.2998  -13.3390 1380.6556
   28.3101    6.9838  -11.6569   -6.4896    0.1468    7.3127   31.1901  -83.1562    6.4301 -200.6768
  -70.7375    0.9458  -55.9804 -636.5905    5.0692 -137.3350 1459.8060
  -28.0012   23.0246   11.4290   -8.1065  -32.2755    1.4673   -3.6073   25.8465  -37.0473    1.4524
  -18.7287   36.7661    2.6007   10.1660  -99.6012    6.1023  -23.0110  376.6854
  -20.9498    8.0059   21.3452  -15.9233   -2.8418   16.8217    5.8310   -0.9881   -7.2131   27.3880
   -8.6981    6.2081  -35.4395  -18.4809  -15.0157 -395.5557  -79.8539    8.0413 1023.8653
    0.6183  -10.5678  -18.9813   -4.8756    8.2908    5.9948   -2.7129  -10.3368   -6.9709   16.8209
   -5.1598    7.6817  -38.0130  -41.4355   -5.5170  -61.4090 -132.0485   -2.3494   35.0081  976.3752
    7.2230    5.2851  -14.5348   -5.5347  -11.0273  -12.0323   -6.8407   20.9332    1.1721    1.9732
   -7.6129  -19.5027    4.6812  -30.3377   28.7179  -17.0478    6.0604 -139.3049   33.3825   -7.5390
  948.5868
  -32.4276  -14.4594    8.3066  -12.6036    4.3011    2.8450   -6.7576   -4.6601    7.5581  -24.2121
   23.4252   -1.7728  -33.1182   16.0174   15.4423  -39.8108   20.7751  -22.8877 -173.7182   21.6292
  -80.4481  829.3488
   -3.5733  -37.7271    1.5091   14.4362  -21.9313   12.6863    0.7802  -13.1662   -3.8101    8.6196
   -1.5676    7.3689    1.8788  -18.4068  -20.9159   18.4148   -9.9679   -7.4528   53.4643 -200.4210
   89.9830   24.6974  816.9849
    5.0868  -19.9630  -22.0886    7.7208    8.2366  -11.7378   22.3329  -25.2231    5.7914  -13.5064
   17.5483  -25.6794   -7.0186  -12.6118  -13.7880  -13.1763  -22.3750  -17.4747  -87.7995   77.0208
 -301.0932   13.5117  -30.5988  786.0617
  -28.5475   15.6761    6.3705  -29.1365  -27.2370   -3.8530   -7.8866   17.8615    4.3054    1.6323
    7.3886  -13.6899  -15.2467    5.7281  -16.9081  -56.7406    6.9514   38.7635 -174.4579   18.7500
   56.1387  -18.8440    7.8497  -27.2248  868.8550
  -22.3505  -37.6630    8.5686    8.7342   -6.0343    5.8885    9.5970  -24.6015   -3.8228    7.2859
  -12.3543   -3.8463   16.1755  -16.8963   17.1163   11.0454  -18.3363    1.9234   24.9845 -199.9498
  -62.1777   26.3103  -42.2578    3.2339   39.4762  797.9887
  -28.6102   -8.9105  -34.5049   -4.7980   -6.0248   -1.4706  -16.2518    5.7427  -27.9713   -8.1025
    1.8690   -8.3329   -8.3028   23.2001  -16.7039   30.7503   28.5505  -26.5536   46.1289  -43.1108
 -276.8847   30.2414   -9.2696 -118.9545   21.3319    6.0231  773.9148
  -52.4727  -38.1444   -8.7850  -15.0775   18.4468    8.3806  -14.5541    8.6756   -4.4420   -6.1193
   16.3109   -0.3729  -32.4962    1.6516   15.0542  -46.9136   -1.9753  -16.0406 -135.6331  -13.0124
    1.7013  -34.9677   68.9094    6.4939  -38.2456   61.1775    2.9154  834.2498
    1.0058  -22.3302    1.7863  -10.8424  -12.8379    0.6189   16.5346  -13.1856    8.7061   25.0053
   -2.2631   -6.7332   20.1199  -23.1262    5.4451  -34.3025  -47.6673   -4.0242  -28.3018 -338.2582
   16.8563   36.5542  -98.6310   29.3167   33.2299  -59.6250  -37.0531   12.3967  778.8789
   17.2579    1.2760  -31.4379    7.9545   11.3584  -20.2175  -13.4779   -3.7093  -39.1690    7.1162
    4.4878  -27.6191    1.2509   14.4491  -33.2408   17.7795    0.8157  -20.1935  -18.8684   14.0516
 -158.8522   -7.1370   59.4233  -59.3149   -8.5728  -67.3939  -71.3431    6.2365   -0.3345  786.2511
  -33.7370   64.5917  -10.3533   18.8733   -9.9103    7.3380  -30.5956 -221.1145   -0.5772  -89.7037
   27.8043    8.2394   69.0905   98.5683  -18.2822 -511.0946  321.5991   29.6231  -97.0753   17.1446
    7.9932  -21.7916   10.9492  -11.2506   -5.2842    2.2693   -1.8952  -15.8010   14.3731   -4.8206
 1445.8011
   18.6470  -28.3183   14.2710    7.3549   -6.0478   11.4273  -61.1040  -24.8706   -5.0250   17.9399
    5.3917   -6.9317    9.7101 -162.0470    3.1279  409.8353 -477.7472   -3.2938   -0.4560  -17.6142
   -1.7981   18.0123  -37.3354   -4.9027   17.2881  -24.6995   -2.7096    8.9690   -2.9099   -1.9130
 -139.4883 1293.1339
    1.7652   -9.5531   -7.1523   16.7263   25.1738   -5.7444  -13.9307  -22.4458   35.6675    5.3560
   -6.5075    1.3085    4.6985   -6.9271   30.2830    4.1182   20.5703 -143.3488   -7.9148    1.2414
    8.7810   -1.0326    2.6288   -2.2303  -16.2530   -4.0834   -8.2541   -0.6285   -9.3676  -51.9280
  -19.4098  -17.3902  327.1019
  -30.5640   22.8525  -19.4949  -69.1407 -108.9200   18.5773 -155.3912  -59.7598    1.8033   87.0849
   -1.5005   -4.4169  -57.1212   19.0852   10.3829 -171.2137   78.6600  -33.9098    0.6824   23.7569
   -6.3244   -6.1526    7.9136   41.0228  -13.4992   20.4496    0.7211  -32.3262    7.3158    6.2324
 -629.9481 -172.2312   13.6198 1276.2104
  -20.4043   14.8525   -4.0126 -110.9915 -102.5179   11.0940 -160.6258 -883.9813   17.6175   97.9213
 -112.4375  -20.9934    6.8371  -65.0704    6.8614   25.2815   78.2450   -8.6682   36.1910   -0.1305
    5.5474   -0.5226  -11.1058  -11.4877   17.4551  -24.8612   12.4410   -9.7185  -41.7518    7.2220
  -33.7535 -184.9047   12.4330  114.8319 1501.9045
    8.5151   11.8084  -42.5267  -12.5525   -8.2558   21.2420   21.1378   35.1238  -88.6343   -9.6658
    9.1982   19.4360   -9.0375    1.5458  -31.9803    5.7248  -16.5553   71.9669    0.4990    2.1383
    0.7109    3.3209   -0.0663  -31.0050   -1.3162   -4.6417  -13.7497   -0.7144   -3.6591  -28.5199
    1.9200    7.3285 -118.2304  -19.4587  -22.1653  298.2054
 -183.5700  -52.4757    1.8279   24.8077   30.3143   -3.3872   14.7522   40.3452   -0.3070 -139.9267
 -172.1856  -17.9838  -67.8968 -114.0721   11.9477   -3.3556   30.3601   19.5257   13.1939   18.9360
    5.7786   -8.7916  -10.3743   15.0081  -13.9377   -2.7019    3.5354   -3.0154    3.8255  -10.2143
    5.2134   -2.7346  -22.3859    4.6956    9.0021   17.7751  444.9323
   55.9527  -72.5211   36.7406   33.4352   48.7493   -3.2595    4.0574 -185.7929   10.2801 -284.1890
 -788.1445    8.4046  -73.4882 -101.5216   -4.5466   12.8193   46.8683    7.6189    7.9796  -10.2208
   -3.1600   -9.6356  -43.1620    1.0047  -12.4548  -19.8549  -11.6126   29.5096    8.5786   -7.4180
   -9.6446  -10.1692    8.1116   24.6093   51.8733   -3.2741  223.6990 1030.8851
   -6.6622    3.6982  -60.3734    8.7475   -0.5515  -15.1503  -12.5328  -17.0561   11.0948    4.8151
   11.8504  -63.5308  -10.5754   -3.0113   37.1988    6.2590    9.3547   -6.5766    9.4298    3.8340
   -5.2228   11.6096   -4.8153  -15.6178  -10.3512   13.2148  -16.6971    0.6960   -1.9529  -17.5323
    2.5737   10.3620  -11.0141    7.8296   18.9319    6.8480   10.3012  -14.7709  210.3117
   23.7994    8.3622   -7.6409   38.3062  -16.5503    5.6896   31.4156  -16.6393   -4.2467  -61.2499
   29.6517    2.5978 -242.0239  178.8188    0.4830   23.8050    4.0989    0.9715    5.1036  -14.5235
   -2.8844    5.9318    2.0028    1.7235    3.5451   -8.9143    6.8675    3.1977  -11.9469   -0.0510
    2.3299  -19.8592   -8.7190   18.0851  -19.6941    5.1556    5.4962  -28.4850    9.7997  358.6732
  -36.6804   -4.4621    3.7890  -33.3016    4.7912   -6.4402  -13.3960   -1.4614    5.8084   21.7429
   31.5624    0.0744  190.8496 -212.4868   -0.0105    7.1591  -45.9355    0.9371   -8.4142   17.8031
    6.0793  -10.8040   -7.3230    2.5802   -4.3093   -2.4880  -12.1878    4.0980   13.8002   -3.9804
  -30.6705   31.4501    3.4911  -30.2289    8.3842   -0.4147   11.1254   15.1510   -7.3791 -155.0975
  350.3194
   -0.5798   -1.0965    7.6764    1.7539    3.4829    8.4395   -8.5672    3.4675   -5.8423    6.6738
   -7.1988   20.6643   -5.4168    5.3952  -30.9830   -3.4028    0.9610    7.9155    3.4552    3.2692
   -9.0724   -5.9813   -1.4774  -10.0219   -3.1194   -3.9599   -6.0211   -0.0288   -3.1578   -9.5511
    1.3997   -1.0324   -2.2859   -5.3878   -3.2993   -1.4858   -5.0944   -3.0130   -7.1423    0.6438
   -4.6146  181.5841
   -5.9531   -3.0733    0.3650   -0.2623   -0.6574    1.2912    2.6598   -0.6132    4.2677   -2.0869
   -3.6943   -5.0111   -6.6595   -2.2605   -9.7584    2.1836   -2.7170  -15.4277   23.1283   -4.9795
   -7.4271 -124.5742   49.0344  145.4870   -3.7440  -11.1423  -22.9438   -0.4750   -9.8099   -0.7900
   -1.0574   -9.5660   -5.5819    0.4932    2.2578   -6.8845    5.7995   -0.0123   -2.9908    1.7418
   -2.5361  -11.0164  257.6958
    1.0181   -1.3870    0.0522    0.9948    3.5182    6.4127   -0.6389    0.8946    1.9341   -1.0065
   -0.5428    3.2864    3.4368   -2.0570    5.2373   -6.0894    1.6499    3.2568  -10.6449   17.2373
    1.8798   51.7702  -90.2777 -102.8656    0.2714   -0.8770   14.3210   -0.7933    0.2549    4.6340
   -2.9220    1.3545    1.8102   -1.3562   -5.6587    1.2890   -3.1579    3.0394    7.4867   -1.8813
    0.8407   -1.6421  -53.1868  234.8772
    0.4342    6.6223    2.5316    1.6736    5.3177    8.8304   -9.2604   10.2326   -1.5025    5.2080
   -1.1738   13.9050   -3.0653   10.1091    2.6604  -17.5314    5.8451   32.2054   -4.5642   -1.6801
  -45.5700  129.2156  -89.3414 -285.4859   -7.0502   19.5603   47.3579  -10.7674    0.1634    8.7941
   -8.0390   10.2275   -3.2562  -16.5102    2.6214    5.4568  -10.4959    4.3217   11.2874   -0.6380
   -4.9127    5.0704 -127.6927   89.9162  436.2037
   26.8514    3.1704   -9.6408   13.8948    6.2180    5.0959    2.5255   13.5170   -0.0789   17.0770
    0.8537    4.1523    2.3269   -3.8812   -0.0661    9.5713   -1.5424   11.4153  -34.5553   15.0577
  -40.4908 -392.2188  -92.4871  -36.2748   25.4810  -10.6575   -2.7533    5.8449   -8.8503   12.6430
   18.0273   -6.9556   15.2151   10.0106   -1.5950   -8.7702    0.0340   12.5261   -1.0961   -1.9080
   -0.1865   -5.8903   25.3815   -5.7080   -8.9966  502.4468
    6.1700   -4.3006   -2.3189    1.6877    3.2110    3.2072    0.5328    3.3777    1.5424    0.1714
   -5.1638   -2.7602    3.4544   -7.7727   -2.9272   -8.6468   -2.7860   -0.4449    5.1376   18.8805
   -7.9775  -93.3657  -77.6361   -9.8472    3.0819  -14.6813   -0.3093    7.7297   -3.3874   -0.7297
    2.5553   -6.8679    7.5140    0.7267   -6.1415   -0.8405    2.7331    3.8665   -1.1764   -4.2684
    1.1912   -9.1523   -3.3928    2.2684    4.8264   66.7760  209.2228
    0.8248    1.9029   -5.9121    0.9532   -0.1818   -1.5490   -3.4371   -0.8321   -4.0704   10.3378
    2.1320    0.8774    0.5392    3.2228    0.6333   13.6107    4.1946    2.9050  -34.5349   -4.1766
    1.4195  -16.9567   -4.3514  -49.1039    0.5612    5.3184   -4.3295    5.7922   -4.0659   -8.2857
    8.6324   -0.7537   -1.1194    7.7557    0.3801    0.6074   -1.5567   -1.3900   -1.9960   -0.5012
    0.3362    3.0194   -8.5535   11.2847   26.2701   32.8356   10.2020  204.1803
   -4.7931   -1.4367    0.8830   -2.8760    1.5704    4.3580   -2.4777    6.2655    2.7238   -0.4041
   -8.4425   -1.5670   -8.4908   -1.8122   -7.0262   -9.6594    3.3156   -3.0933   11.5936   21.0176
   -2.8476  -51.0315  -20.5193    7.0913   -7.6184  -10.5582   -4.2295   -6.5722   -9.1461    0.2041
    0.8178   -4.7060    1.2549   -8.6214    1.7500    0.0525    3.2183    3.0848   -0.2026    0.3838
   -3.0977  -12.1642   -6.2359   -5.0386  -10.0415   13.9302   -5.8857    4.9903  184.1180
  -19.3249   13.9401    6.9651  -17.6514    7.5569  -10.2030    1.1057    2.9641    4.9365   -3.4224
    2.8814   -8.5122    9.4834    3.0040    3.9561   -8.9677   11.1506  -11.6459    8.0396   10.2955
   17.2677  -20.5280 -400.8744   37.5536  -12.3623   14.2890   -3.2619  -15.0040   56.9698  -24.1910
  -10.9954    9.0658  -10.3305   -4.0806   -5.8330    3.2415    9.9741   23.1929   -3.2707   -9.2674
    9.4819   -8.1250  -13.9310   32.8951    1.6609    3.1605   28.5225   -6.3715    2.3100  510.7592
    2.0600   -0.2965   -1.3668    2.4224    0.8193    3.7947   -0.6571    1.5960   -1.5143    2.7352
   -1.4291    3.8017   -1.5084   -0.4827   -4.5166   -0.9872   -3.0886    0.1851   -1.6637   30.9469
    0.8180    3.1306    5.6861  -42.5601    1.6462   -8.4038   -2.4300   -1.4670  -16.6949   -8.9725
    2.8216   -3.5933   -4.4477    0.1659   -0.6570   -1.8613   -1.1380   -0.9932    1.4038    0.4599
   -0.1945   -1.4560  -14.2858    6.7764   23.0524    6.4612    1.6354    3.1407   -0.0749  -18.9089
  202.4408
    4.9762   -3.0051    0.5778    2.3901    7.8526    2.4885    5.7085   -8.0071   -3.7026   -0.7761
   -3.3631    5.4975   -1.1820   -0.2021    5.0091    4.5445   -2.6632    5.5236   27.5774  -11.4085
   14.0691    3.5149   -6.0673   17.3693 -124.0201   49.5512 -141.7399   -3.1484   -4.0472    6.3518
   -2.6264   -1.4872   12.4337   -1.3390   -6.1254    4.3537   -2.6559    5.0686    1.4421   -1.1418
    3.3839    2.4751   -4.8098    5.5149   16.2457   -3.3221   -4.1483    2.6655   -3.8744   -0.5120
    2.5953  256.6859
   -6.4608   -4.4237   -5.3310   -3.2589   -2.9100   -4.9323   -4.7129    5.7390   -0.2056   -1.9488
   -3.2078   -7.8700    0.8222   -1.9824   -5.9543   -4.7573    6.5102   -4.0597  -10.4237   24.0648
  -14.1546   -5.3517   -3.7321  -14.4203   51.9184  -84.6880  108.7955    2.4936   -1.7659   -2.9978
    4.0080   -3.8465   -2.3226   -3.4317    0.9473   -1.7889    3.0002   -1.9213   -5.7869    0.4603
   -0.8841   -5.1800    0.4499   -3.4789   -7.2876   -1.6909   -4.9853   -0.8976   -5.4604   -1.2204
    0.7692  -50.3806  233.4773
   12.3089    3.0640   11.1914    4.5491   11.9232   12.1768   10.8602  -15.8512    4.5584    7.8605
    1.1489   14.7244   -0.0327   -5.6130    1.3933    4.0367  -18.9542   29.9223   12.4684  -16.8779
  -35.6699   20.6248  -19.1687   51.9706 -136.1960   89.4310 -299.4721    2.2074  -10.4069   10.4892
  -11.8376   -1.9394    3.2610    2.0487   -9.1692    0.7996   -5.6604    5.0176   13.3593   -7.9151
    5.4020    3.8898  -16.6983   10.9818   38.0006    5.5445    1.0357    6.0186   -0.3519   -8.8914
    0.9594  121.9534  -88.2045  442.0446
   -2.3452   -1.7516   -3.0592    2.6169    1.6776   -0.9091    3.9626    1.6071   -5.3179   -5.9074
   -0.5026    3.9722   -1.2787    2.1063    0.2865    3.0364    3.9903   -3.9206   11.6701   15.7126
    5.7299   -3.4328   -1.3066   -1.0316  -48.1488  -33.4136   -5.6918   -6.1148   -1.0756    4.0879
    1.1761   -2.4314    3.2854   -0.9112   -4.3656   -0.7549    1.2785    5.8661   -2.1147    3.5423
    1.5933    3.8157    0.6459   -0.5712    0.3388   -0.8303    0.7963   -0.5714    0.7709    0.9600
    0.1055    0.7915   -1.8600    6.4068  198.0963
   -1.0947   17.6194    5.7829   -9.9843    8.4774    1.7197   -1.6572   -0.7079    0.8746    2.6813
   18.1565   13.3197   -0.3145    9.2365  -14.4769   -1.7465   15.3923   10.3167   24.0372    3.9247
  -25.7686  -12.6611   17.0390   -1.5802  -37.4405 -394.4236  -19.8842  -12.1720   23.4356   21.2848
  -21.3309    5.2580   17.1280   -9.0339   -1.4268   -2.1809   -6.1960   11.3102   -8.7107   -6.0105
    7.8980    3.3199   -2.3140    1.7699   13.2736   -2.4492    0.8653   -0.7782   -0.0836    6.8949
    2.2118  -12.1533   33.5819   -4.0475   20.3337  515.6176
   -0.0898    3.5067    1.0124    0.0807   -1.5678    0.2381   -0.9112   -0.3663    1.4900    1.1800
    1.9533   -0.1730   -0.5973    0.4988   -3.2170   -2.6174   -0.6806    3.6513    3.8948  -34.2886
   -1.0495    1.5779    1.3933   -3.0429   -2.4528    0.0779  -44.3690   -1.7044   12.3532   -7.8678
   -5.8637    2.2104   -7.3860   -1.5202    1.8010   -1.9770   -0.5783    0.1712    0.9230   -0.8929
   -1.1989    2.8063   -2.5871    0.8346    2.3377   -1.3280    1.4689   -1.2696    1.2317    3.9681
   -3.3821   15.0592   -6.7924   24.1633    1.1494   14.1963  201.6860
   11.4100  -19.1953   -9.7606   23.3825    9.4126  -15.0887    1.8286   10.6269   -2.6990   -0.0683
   10.2841   -5.7839    6.3324   -5.7418   10.4073   22.6935    8.2367  -29.7568  -25.5305   26.0957
   30.6758    7.1889   -2.3009    4.3136 -408.2428  -75.3689   20.8256   15.2831   -4.6995    0.5818
   29.4973  -13.7821   -5.6514    9.2530   -8.5607   12.2087   13.5880    7.3810   -3.0481   -0.0185
    3.9309   -0.6803    3.7916   -3.2239  -14.4053    2.6567   -2.7649    3.2435   -2.1686   -2.6368
    1.2019   34.3510  -11.9538   17.6432   22.8792    4.0555   -5.4683  509.2368
   -0.8021   -4.7675   -2.3504    3.4511    0.7229   -3.3835    3.7740    3.4751   -1.1381   -2.9580
    0.5165   -0.8124    8.6709   -6.8779    0.3634   -2.5417   -3.8906   -1.8327   13.9490   18.0996
    0.4778    0.9948  -12.3849    1.3832  -83.7084  -65.7790    7.5487    6.8006   -5.7266    3.2031
    5.7655   -4.2544   -5.1282    2.1942   -7.7303    1.1946    5.0008    2.4936    0.4489   -2.5453
    4.4817    1.3153    0.6032   -2.7229   -1.6564   -0.9636   -1.2342    0.4976    1.1187    3.8671
   -0.2534    2.5267    1.5712   -1.8385    3.7926   31.2053   -0.5349   61.6802  211.6154
   -0.8703    3.0768   -0.0658   -3.5520    0.0077   -0.2614    0.3378   -0.2376   -1.3497   -1.3694
   -5.1628   -1.9157    0.6781   -0.6763   -4.9057  -12.9885   -3.7468    5.3329   38.4716   -3.3055
   -2.2421   -4.1860    0.2775   -4.9067    8.2997    3.5117  -45.4645   -6.7085    4.0275   -9.8871
   -6.3208    3.8990   -0.0518   -5.3183   -1.5432   -2.5972   -1.9787   -1.2085   -2.0816   -0.9114
   -0.1902    0.7978   -0.9900    2.4549    5.7492   -1.7961   -2.1676   -1.6368   -1.1218   -0.7838
   -0.1667    8.2551  -11.1394   27.5275   -2.6710    7.8956    3.9981  -27.0808   -5.7063  202.9126
    0.6646    2.7494    4.9685   -0.3887   -5.6896    3.9628    5.8994    1.1418   -1.7224   -0.1125
   -9.6739    9.5100    2.8976   -0.1461   -2.8498    4.0272   -2.8144    7.0785   19.3868    1.0803
    7.2138    3.8509  -12.3427   16.1412   -2.9043    3.8314    9.6397 -103.0103   61.2197 -111.6243
    2.4000    2.0910   10.9035    0.4057   -1.7490    5.0979   -2.3292   -3.1808   -1.5781    2.2638
    0.8035    4.4024   -2.7221   -1.2394    3.2351   -0.7649   -4.8069    1.1783   -5.4273  -13.7598
    4.1252   -6.4744   -5.0960    3.7249   -5.1653   -9.9477    1.9830   -6.4166   -3.7203    0.0742
  241.7617
   -6.3784   -3.9228   -5.5817    1.0811    3.1381   -6.0745   -2.9911    2.5123   -4.8485   -4.9809
    3.1713  -10.0497    6.2716    8.1388    0.6444   -3.7009    9.9555  -13.2218    5.5182  -22.1744
   22.4185  -16.8161   21.1645  -30.0094   -6.0062    0.9156  -14.2150   61.5607 -102.0977  116.8622
   -6.4830   -0.7726   -7.3702   -1.2418    0.7014   -3.6639    0.9827    5.7560   -2.7834   -0.3225
   -0.0426   -1.6725    4.0067   -3.2358   -8.6247   -8.5788   -2.2454   -1.6500   -0.6111   19.4211
   -4.8423    1.9202   -1.6316   -1.9441   -0.1698   10.2472    1.3521   -2.3114   -0.6387   -1.2202
  -54.3100  266.1015
    0.8395    2.7059   12.6584   -1.7684   -5.8781   13.9494    8.7267   -3.6516    5.8430   10.1437
   -9.4245   21.3218    3.9773  -12.3432   -0.1268    8.1746  -12.7767    9.1022   15.9790   12.0514
   18.4224   28.1325  -33.9470   22.4444   11.0567    3.0695   21.4427 -118.3193  125.8343 -291.4128
    6.2490   -5.5516    9.4624    8.3904   -7.0104    3.6040   -3.0988  -10.4112    8.7998   -2.4746
    1.8579    6.1351   -8.4027    2.4692   11.0531    1.5419    3.8844    1.4959    4.2798  -22.2188
    5.0676    4.2904    2.4520   -0.9133    0.7904   -9.8156   -4.3629    2.7978   -2.0757    5.5123
  105.0883 -116.1648  415.2312
   20.2908   17.4410   -6.2400   13.4936  -12.9312   -8.4911   17.3828   12.0214    8.2730   -6.5863
    9.6326  -13.2375    9.4947   28.9594    3.4032   28.0082   -4.3203    7.8507   -9.6226  -40.8931
   -5.2767    6.2321   -7.4774    1.3473   19.4659   -2.6836  -16.3657 -394.5726  -97.3324   -5.4124
    9.9927    4.2432   -0.6370   11.9280   10.9216    2.0660   13.9702   -2.8284    1.9194    8.0725
   -3.2547   -3.1767   -5.0597   -1.9687    3.5823   12.7758   -3.6167    3.8781   -4.5269    3.6124
   -3.5451    3.1410   -5.6239   10.4689   -2.6681    5.5395    6.4176   -2.0754   -4.2135   -0.5622
   31.0184   -0.6456   18.9882  503.4919
    1.5770   -0.8883    0.4381    4.9463   -1.5412   -6.6337   -2.5620   -2.4925    2.9179    8.5543
   12.9591   -0.9721    0.1336    6.2067   -1.0941   19.2278   -3.7727    1.7001  -44.3740  -15.6366
   -6.3380    4.5209   -6.9746   -1.5757    7.5332   -6.9254   -0.6671  -64.7092  -64.5448   -1.1541
   -1.5750   -5.8760    2.9157   10.4792    2.1688    1.0063   -1.0783   -5.9706   -3.5572   -4.8734
   -0.9002   -1.7336   -3.6217   -0.9663    2.3282    4.5092   -3.7708    1.5273   -4.4420    1.2469
    0.1508   -0.9489   -3.2185    2.8598    0.1571    5.6459    1.4393    1.2210   -0.8355   -1.3946
   -0.9313    9.5915   -8.7083   74.1604  214.8331
   -5.8414    0.6501   -4.0120   -4.1782   -2.0195   -5.2982   -3.1810   -0.9236   -4.4340    1.6244
   -2.2691   -2.1781   -0.9171    0.5361   -0.6682   -0.4051    1.3566   -0.4148    1.7284   -3.8627
   14.3253    6.1162   -4.6928  -13.1716   -8.3320    4.1881   -8.7837   -4.9028   -0.1109  -49.5469
    0.1817    0.9835    3.3082   -0.3245   -0.4080    0.4656    0.9148   -1.5191   -4.3879   -3.0940
    0.4380    3.4411   -1.3259    4.3403    6.2159   -2.7659   -3.1777   -1.4381   -2.3240    1.3828
    1.7132   -4.4299   -6.4172    5.4367   -4.4747   -3.5926    1.6141   -5.3361   -3.0499   -4.2449
    2.8832   -8.2663   24.8028    3.8292   -2.5057  192.0758
    8.5981    0.9796    1.8157    6.6729    1.5715    5.0802    5.4284    2.6832   -5.4450    2.6140
   -9.4648    1.4272    8.7337    4.9311   -7.8637   12.8644   -4.2559  -12.9435   12.9265    8.4823
   -8.0643   -3.2445   -1.1724   -3.9577    5.9415  -13.6451  -13.0072 -114.4436   74.0427  114.3588
    2.8837   -2.7865  -13.1049    4.1916    1.4119   -6.8058   -3.2101   -2.9377    2.3345    4.8841
   -0.3312   -3.3650   -3.1749   -3.7517   -7.5476   -0.9623    1.7725   -0.9823   -0.0755   -6.4509
   -3.6403    5.0431    3.9587   -9.0859    3.1635  -11.2467   -5.7594   10.5964    1.9809    2.4753
   11.6137  -10.5537  -11.8177   31.9607    3.8436    3.0047  241.6534
  -12.3172   -4.1463    2.7908    1.0818    0.5549    2.5390    1.3161    4.1822    9.8033   -7.5058
    5.5252    2.7291   -0.7985    5.1218    2.7443  -12.9850    6.4196   16.1770   12.4882  -30.3757
  -31.7369   -6.5072    7.8756    8.7344  -11.6250   15.1833   29.5999   66.2430 -115.3831 -118.1942
  -12.1035    1.0846    8.4558   -6.9963   -0.5376    3.1393    2.1395    6.7018    2.3414    1.0444
   -2.0124    1.9132   -4.6704   -2.0472    9.2289   -2.6355   -3.5192    3.2559   -4.6748    1.9270
   -0.0556    2.6881   -2.7671   12.9332   -1.6624   27.4372    5.2811  -13.8871   -1.8074    3.4155
   -9.4976   13.6202    3.4340    1.4561   10.0836    7.3316  -61.8738  274.9821
  -19.9366   -0.4209   -0.6226   -3.1397   -1.2286    5.6971    3.6830    6.8257   17.0008  -11.0003
    5.0635    1.1926   -5.6495    5.5130   12.8546  -23.5623    9.1913   16.2701    3.9798  -22.3905
   12.3560   -0.1812   13.9210    5.4594  -12.8926   34.5794   14.3250  111.9585 -135.5286 -269.1801
   -7.4602    7.7189    6.9931  -13.4034    0.4594    3.2625   10.4168   16.8807   10.4824    4.4108
   -0.4496    4.2516   -4.6927    2.1928    8.9296   -4.0979    5.1868    2.6157    2.3417    7.6164
   -1.3641   11.1781   -0.8515   19.3968   -2.1230   31.0261    5.2569  -11.3174   -0.4110    5.3624
    7.2744    0.6786   43.2424  -14.1291   15.4724   20.2751 -110.8271  122.0066  401.7386
    1.5913   -5.3859    3.6777   20.8605   20.8438   -1.3503    3.1170   28.9586    5.7233   -2.4680
    8.6315   -2.0806  -14.3277   -5.1225   -0.1119   16.6223   22.0330    0.6653    7.6361    2.2357
   -3.9210   -9.2519    2.0781    2.1980   -7.3504    4.7491   -7.0125  -12.3835    4.2273   -2.6592
  -56.1497  -85.2524    1.4403  -21.9628  -38.5979    0.1134  -10.2398    0.4184    2.6422   -5.5896
    1.7280   -2.2710   -0.7888    0.4305   -0.2086   -1.5064   -0.2723   -1.8646   -2.4500   -1.4605
    0.0837    1.4515   -1.8711    5.0023    0.5690    0.1610    0.3687   -3.1305    1.0136    1.1615
    1.3447   -1.6636    5.1546    1.6198   -2.2544   -2.3461    4.0502   -0.4009   -1.0307  216.2077
  -27.5641   13.9759   -6.4895   40.7848   21.6169  -11.0683   15.8301   30.5063   14.2287   16.0408
   30.7337    3.1174    3.5326   57.2053   -5.4720   20.6800  -48.8571   19.0657   12.8377   23.6537
   -3.1440  -17.5860    7.5259    4.6131  -11.5147   -6.5068   -9.4877    3.6486   14.5545   -9.7676
  -81.1722 -427.6874    1.9648  -47.9386   -5.7223    2.2548   -0.9746   12.5295   -6.0031  -37.0295
   46.7098   -0.8769    5.3164   -2.5271   -9.8780  -13.3939   -0.1877   -4.4610    1.1511    8.3439
    0.1534    5.4742    1.4503    6.8579    4.4906   16.4052   -0.9985   -7.9051    2.6039    2.2874
    1.6891   -1.9351    5.0215   -8.3606   -2.6514   -0.6174   -1.1535    2.3023    3.8622   61.6931
  511.5416
   -4.8034    0.6111   -1.3767   -0.8717    0.4943    4.4641    0.3744    1.6464   -0.3753    3.8155
    6.7911    1.8629   -4.8420    2.7063   -2.6823   -7.8197   -7.0602   13.0889   -4.4283   -5.2913
   -8.3919    8.7569    1.7811   -9.7379   11.2297   -2.7768   -7.2016   -4.5998   -4.6533  -11.3870
   -8.8844    9.1217  -44.3186    8.4549    0.4586   14.0009    1.8188   -1.8438    9.9942    0.8910
   -6.1475    5.2260  -12.2920   -1.2389   -3.2689  -14.3782    2.4803   -0.5959   -0.6487   -1.2585
   -4.7582    7.6179    5.9732   -7.9349    1.0294    0.6581   -7.7670    6.6050    0.5245    1.7224
    6.7165   -1.7600   -6.6852    1.1887    0.7868    7.4854  -13.1005   -0.4318   -4.7214   -0.3147
  -12.9513  172.0417
   15.1966  -23.4014   13.2210    8.5970   10.8232   -7.2609   27.4726   17.5829   -3.9006    6.7223
   -8.8939   -3.5663    1.6594  -34.8646    8.5274   39.4633  -30.6013   -8.4072   31.4917   -9.4224
    0.3959   -3.6925   -2.1194   -4.5769    5.9687   -3.4561   -8.1300   -2.7203  -12.5472    0.5017
  -47.4314   19.7166    4.9983 -224.2883  190.3744    5.5643   -0.7813  -29.7587    1.6649   -0.9021
    1.3650   -2.2651   -3.3768    0.6577   10.6256   12.3058    1.6742   -4.4486   -1.6681  -13.4863
    0.4438   -3.4782   -2.4297    2.0919   -3.1187   -7.2484    2.5937    2.3456    0.0135    1.2878
   -1.9978   -0.8139   -1.6396    9.3668   -3.2802   -4.6459    3.1704    3.0595    3.8334    5.4756
    2.4086    2.4339  361.1224
   -8.9066    4.6587   -5.4764   -5.3659   14.3292   10.7138   10.1626  -44.9289   11.4224  -20.2378
   31.3489    2.2665  -10.1902   25.7158   -9.1981  -28.2883    9.0325    6.0724  -17.9278    6.1390
   -8.6183   -5.0288   -2.3577    6.2199  -13.6608    3.3907   -0.9517   -0.3331   16.3150   -2.3383
   14.6971   10.3612   -2.1255  184.3168 -233.6462   -7.2966  -10.6053   40.9219    2.1107   -2.6075
   -0.4782   -2.5996   -0.4987   -0.5499   -7.6220  -12.5359   -3.1638    1.6720   -4.0614   11.3166
   -1.5780    5.1707   -1.8161    5.2023    2.7984   10.1548   -0.7395   -7.5452    1.0013    1.8474
    1.0022   -0.4318    4.4023  -12.6312   -3.0746    1.8829   -1.7350   -2.4976   -1.8163   -3.7110
   -2.1901    0.5866 -161.1421  363.5184
   -5.6144   -0.4362    6.9067    7.6613    3.1186   -1.5442   -4.4632   -2.5589   10.0394    4.8526
    0.2839    5.9191    4.1279   -0.4011   -2.0978   -2.7006    2.7603  -15.1281    4.5838   -1.8715
   -6.1774   -1.6879    1.0613   -3.1022    5.9509   -2.1323    2.9810   -3.5270   -0.7317  -13.9640
   -2.8070   -3.0729   12.6315    2.7722    1.3074  -30.7464   -3.7630    1.9522    3.3368   -0.4983
    1.8610   -4.5862   -0.3082   -3.1769    2.0364    6.5072    6.5264   -0.6010    6.5581   -3.0419
   -4.5626    2.6220    2.3197   -2.8500   -4.2756    2.9303   -0.7751   -3.1657   -5.9863    2.5172
    6.7430   -3.2610   -1.4642    3.2149    3.3051    3.7219   -6.8056    5.6635   -1.2419    0.9591
    1.7982   -8.2173    1.4866   -1.8119  179.0868
  -40.4521   55.0966  -11.3931  -19.4778  -17.4540   -4.3096   -3.4406   15.1865   -0.2279    2.9028
   -9.4200  -15.7040   -6.9301  -15.1825   22.5004   -6.2960   21.3683  -24.2039  -14.1270  -10.2001
   -3.2647    7.7883   -2.3954   18.8817   -6.0884    0.2238  -12.4240    3.4863    5.6799   11.3407
  -20.2377  -29.8719    6.8078   27.4891   12.3361   -0.3692   11.7794  -22.0992   13.2498    8.4722
   -7.3535   -2.5582   -4.5031    0.9045   -2.0366   -2.3255    1.5243   -2.3755   -4.2587  -11.5457
   -1.3388    2.4058   -4.7292    6.4010   -1.6560   -5.6788    2.0114   -4.6059   -4.6192    2.7271
   -5.3486    0.3819   -8.3978    0.3033   -4.9175    0.7720   -4.4630   -2.8475   -3.3795    5.1419
    5.6967   -5.8765    3.7703   -8.4420   -3.4764  952.9304
  -59.0410 -221.7437   -5.4308  -15.3203   17.6816   -4.1068   25.8458  -18.5038    7.3428   16.7311
   37.7656   -1.3030  -16.4735   -0.3790    1.0681    5.0141  -13.8398    6.9068    0.8413  -16.5385
   -7.0378   14.3368   11.0296    7.5041   -6.5582  -19.0738    2.5412   28.8018   12.1263    1.8094
  -27.4699   -8.1767   -5.5391   24.0807   18.0192    1.9412  -30.5127    7.9683   -5.5688    4.0418
   -4.8297    0.9945   -0.9951    0.7194   -0.2597  -11.8026   -0.5077   -4.7924    0.6041   -4.4865
   -0.8305   -2.3634    6.2733   -7.4902    2.8540   11.1015   -0.6709    4.3254    2.1901   -0.5564
   -6.9712    4.6328  -10.7128   -7.3967   -3.9526   -2.3536   -5.2499    5.9770   11.4406    4.5058
   17.4732   -2.5815   -2.5535    5.0476    0.9311  230.5451  509.6550
   -3.2022  -11.5998  -59.3993   -6.7266    1.6239   12.4916   13.8877   22.1852  -23.3105  -12.7762
   -7.3882  -10.3103    4.4410    5.6499    8.2016   20.7016   -5.6377  -10.6045    0.0914   -3.9246
   -5.9083   10.3691   -4.5173  -12.1903   -6.6753    8.6117   -5.6773   -0.0465    4.4203    4.9998
   12.8149    2.4389   -5.5410   -4.3893  -23.9931    9.7358    9.8620    6.0661    4.1904    4.3498
    5.6710   -2.1264   -5.4201    0.5599    9.7594   -3.2303   -1.4004    3.4505    1.3202    1.2242
   -1.9296    5.2944   -2.0685    8.1729   -1.9697    2.0938   -0.8443   -2.7731   -3.2513   -1.0435
   -4.3493    0.6546   -5.6125   -3.0039    7.0760    3.4888   -8.7569   -0.2575   -0.7510    3.0493
   11.5761    0.1416   -5.4031   10.5597   -5.6878  -18.8965   -2.1993  193.1876
  -23.7698 -124.7621    6.1906   14.6756   28.3709    2.5782   17.4318    9.5606    6.1805   -6.7729
   -1.7870    0.5767  -15.4179   28.6921   -9.5666    1.5446  -20.7479   31.9230   15.3720    8.7967
  -11.8920   -9.3109    3.1054  -11.0418    2.1829  -14.6230    0.8445   -5.4746   22.0337   -2.9556
   42.9583   23.4502    0.8685  -31.8088   -4.9611  -15.7386   44.7094   23.7442   -8.0579   18.3189
    0.0892    6.0142    0.4695    0.1192    6.2839    6.0154    5.3569    1.5395    6.2632    8.2312
    0.2778   -3.5295    7.0326    0.8451   -4.4305   11.4634    2.2474   -2.7043    1.8061    1.1332
   -4.7035   -2.8701   -2.9784    1.8208    3.8778    2.0636  -10.5148    4.1215    6.9516   -2.3367
   -2.7499   -4.0121   -5.5119    8.7523    0.3100 -693.4342 -155.4332   27.9941 1365.5448
   12.5683  -31.9676  -33.3772   -6.2866  -22.1269  -11.0555   -5.2489   16.6172    9.5092   31.3401
   -3.9618    4.1857   24.1131    3.1414    1.5528   18.9867  -12.1408    0.0518    4.4523    9.1919
    5.4728  -22.0750  -24.6586   -4.6702  -13.1341   14.5121    2.4610  -11.2749  -14.5967   -9.7165
    5.1927   10.9203    5.4305  -38.4316  -35.1701   -8.5749  -15.0530   -3.6574   -5.4874  -16.7924
    7.7020    6.9472    7.7981    3.5037    2.8615   20.7937    8.9757   -0.6070    8.3453   13.7380
    3.2048    1.1226   -2.3956    3.3133   -0.6792  -15.2628   -0.8013   12.3589    1.8172   -0.8323
    3.9825   -0.0476    4.1768   11.6786   -1.3458   -2.8392    7.3985    2.9552    5.7606    5.0613
    0.8458    1.2392    7.5763    8.9236    4.9906 -238.0075 -165.2006   11.3522  236.4501 1684.9938
   38.2524    6.2750   29.2320   24.7972    4.1761  -27.6147   -5.5337  -24.4598   19.9134   -4.6869
   21.1616   -0.2020  -16.3451   -6.4821  -22.6624  -29.5284    9.4154   13.5256  -10.5029    4.2396
   10.9035   -6.6600  -11.4609    0.2597    4.9145    9.8980   -8.4624   -2.0518   -6.3593   -7.1053
   -3.4312    0.2168  -12.7878    4.7503   28.6833  -13.3676  -17.1856    0.5444  -14.7455   10.4721
  -11.4584    0.5116    1.4236   -4.9170   -5.9610   12.3846    0.7689    1.4715    0.9160    0.6298
   -1.4567   -3.4533    2.0821   -8.8565   -2.5886  -22.2119   -2.3199   20.3435   -1.4037   -5.5061
    2.0234   -2.9259    0.9460    6.9923    6.7764    0.4347   -0.2604   -1.2124   -1.5020    1.1943
  -16.4162    3.0738   22.1417  -13.8439   -2.5067   21.3405   -2.4894  -63.1899  -34.4064  -11.2523
  309.9047
  -56.2913  -45.0905  -31.3760   15.1682    0.2741    5.2634  -12.7645   61.3746    5.1541   19.4919
   17.3338   -9.8272   34.4062   10.1190   12.2367   24.8622  -11.8728    3.3176   19.6918    1.2994
   -4.0019  -19.7711   -3.9521   -3.7562  -29.4055  -22.7002   15.3633    1.4059    0.9677  -13.4586
   28.9245   10.6881   -6.9269   -5.9310   -3.8123    6.7429  -41.4787  -27.6981   -0.5708    5.2876
   16.2627   -2.6698    2.1761   -0.0623    0.4370    0.1280    3.2198   -2.0001    0.6915    9.5168
   -1.0787    0.4759    1.7864    2.2554   -2.2705   27.6055    1.8457    0.1067    2.2104    0.3722
   -4.8980   -0.4608    0.8387  -10.9205    2.1514    0.9436  -12.8626    6.9629   10.5163   -3.7020
    8.7217    4.4727  -11.3438   -2.6973   -5.3296 -250.7795   -7.3094    9.4116 -238.7191  194.1801
   -8.4165 1657.1276
 -122.5124    7.6694  -21.9081   -1.2720    7.1545   13.2790   50.9794   22.1206   -5.8145    0.2315
   -0.1343  -11.1488    4.4301   33.8126    2.2132   35.4800  -27.6173    3.2515    7.6675   -5.0555
  -20.1355    6.9642   23.1525  -15.6113   -2.1403   -0.2782   12.3218    3.8246    4.4001   13.0745
    7.4240    0.4343   -6.5444    1.3591   -6.9769   -1.2167    1.6709   -2.8660   16.1571    2.2870
    4.2670    4.3777   -2.5577    2.7618    9.3869    2.1388    2.2448    0.7004    3.3806  -21.1907
    2.9273    3.6976    0.6857    2.9742    0.5567    3.5700   -0.1771   -8.1358   -3.3942    2.2242
   -1.9866   -1.8920   -3.2943    2.1690   -4.5405   -0.6843    1.8839   -3.3826   -4.6884   -0.0156
   -4.2699   -4.1205   -7.1241    6.4195   -0.3265  -13.2880  -19.3620    4.0049  295.5157 -229.6359
   12.3065  234.9477 1450.6056
  -32.9096  -15.6340  -10.5181  -36.5325    9.1126   19.3640   12.9333   12.8465  -37.6245  -15.0400
   -9.7503   -4.2063   27.5631    3.5335   12.7003   29.7849   -8.7540  -14.7136   19.9060   -2.5708
  -14.5982   -0.8302    1.6679   -5.9339  -11.2671   -6.1613   -2.5539    8.6547   -0.4123    0.3930
    5.7924    3.8406   -5.3483   -3.2592  -11.8127   17.8128   15.6936   -7.4760    3.4201  -16.9877
   11.4543   -8.5067   -6.0672    2.4215    3.2444  -10.1989   -3.0191    3.0668   -2.0808    1.7878
   -2.6393   11.6164   -2.6526   10.4033    5.4840   21.1070    0.1332  -10.7515   -0.2751    2.5259
    1.5107    6.0834   -4.2158   -7.2776    0.3759    4.8339   -5.7006    4.0052    5.2119   -1.4835
    7.0490   -5.1938  -14.4458   16.0502   -3.2985   14.5469    9.5589   31.1955   -7.6411  -22.3492
 -149.2552   -5.7275  -29.3298  322.2766
   18.9134  -10.3783   13.3465  -31.2322    1.4446  -14.4067   19.5587   -3.6017    7.9986   -6.2272
   -2.7429   16.9621   -6.9366  -23.1609  -13.9508  -18.6636   -6.9160    0.3004   11.8321    9.0482
   13.0863  -17.6552  -22.8237   -9.9259   -6.6757  -20.8037    2.0973  -20.3781  -11.2964   -0.9423
  -21.6793  -18.2621    4.6613    1.5295   -0.4940  -11.9880   12.0908   32.8119  -17.4295   -6.0127
    0.6847    0.6041    0.6194    4.0966    4.3326    9.1567    4.0375   -2.5877    0.8129   13.3983
    1.4256   -3.3175    3.2303   -7.1287    1.5960    5.6237   -0.4574    8.7558    5.0508    0.7949
    4.2433    0.8543    0.8570   11.2053    0.8812    0.3515    4.7173    0.7446   -4.6565    7.8309
   22.0956    1.1234    2.2676    1.0845    2.3138   33.1987   34.7789   -3.9008 -159.9074   66.5799
   -0.1704 -793.4856 -255.2918   -0.9590 1455.4000
    5.3695  -31.2375   18.4006   -7.2593  -10.0473   -8.9325    3.1271   -1.6398    2.5810   -7.3374
  -26.2200    7.2016  -24.9119   13.9406   -7.5231  -14.8402    6.2002    9.9578  -14.2144  -17.2808
    4.2620   13.7981   10.5686   -5.0685    1.9150    8.2144   -7.6034   -5.5927   20.1250    0.6061
   14.4531  -38.7506    6.0661   -8.1310   -7.5879   -7.5410   45.3415   31.9047   -8.0306    1.0880
   -8.0334    0.6102    1.1314    1.5593    1.8200   -7.6253    1.1262   -1.5669    3.3560    2.1631
    0.1731   -0.6288    2.1895    0.1983    0.3905   -5.0565    0.7921    0.0879    1.8663   -0.5276
    1.6222    1.0794    0.6705    6.2959   -0.0608   -1.2795    4.8365   -0.7069   -0.1976    1.4208
   17.9725   -1.5388   -7.1608    9.6741    2.2560   68.4185   27.1357   -1.3469  -38.8955   68.2050
  -14.2041  -76.4899 -198.6734    0.7180  128.2681 1232.8133
   20.4429   15.5157  -12.7033   15.1756   -6.2560   -8.7495  -28.8456   -0.9319    8.1583   10.7630
    6.0317   -2.0647  -12.8722   -8.8831   -7.8115  -13.0982    5.2055  -10.0467   -6.1458    3.5697
   -1.0277  -10.8358  -10.3838    3.8171    8.9992   10.0167    4.1902    1.8758   15.3332   13.6032
    3.3560   -5.7036    4.8006   -0.2818    7.5696  -16.3476  -11.5660   -3.9536   -1.1221    0.2801
   -3.1852  -10.0497   -4.5301   -1.3343   -0.7076    5.7224    0.6318    1.7261   -4.0639   -2.0836
   -0.3041    2.3704    0.2509   -3.9567    2.2408  -11.5655   -0.8651    0.4839   -1.3170    1.7646
    3.0775   -2.8343   -3.2142   -3.0866   -3.8849    2.7173    2.8656   -7.3333  -10.0538   -0.6078
   -0.2526   -3.0342    3.3568   -4.6233   -5.4602   -4.9709  -11.6914  -21.9781   15.8583    2.5807
   53.3526    7.2104    9.0764  -93.6240  -18.0754  -19.3900  260.6374
  -30.0422    1.7278    2.2890   20.9768   20.3347   10.4281  -24.0967  -30.3780   -5.0659   28.1505
   -4.8130  -10.6782  -23.1673  -23.3362    0.4512   -0.6862    3.8105   -1.4983   -3.2050  -21.3253
    9.8654   14.1920   12.3520    3.0310    3.4232   -3.3242    3.2840    6.2489   -9.5469   15.2461
   20.3251   11.8571   -1.3014  -17.6836   15.5447   -0.7242   35.2630   31.4167   13.0661   -9.0014
   -1.8363   -1.1755    2.8294   -0.7939   -9.1052   -7.3107    0.0444   -0.1722    0.1684    5.8133
   -3.5992   -2.6305    5.0662   -8.9051   -0.4221    6.4166    2.3081    6.4408    0.0444   -0.8848
   -5.4890   13.0875  -19.8615   13.5108    4.4655    0.7838   -2.4109    4.5640    3.0485   -0.2902
   -9.1013   -1.1956    1.1589    1.5205   -0.3462   13.7207   10.4244  -13.7766    0.1004   17.2003
    6.7279  -67.2079  -72.3315    7.4172 -142.4287 -159.3145    1.1695 1365.4789
   11.1917  -12.1287  -32.9442   -3.2252   -2.7586    7.0460   18.7115   54.4835  -15.6717   -9.2753
   15.1122    7.4752   42.3061    6.2006   -2.5135   -5.7254    0.6421  -12.6303   -7.0026  -10.6650
   14.9091    1.3193    6.3068   18.1760  -19.2638    1.5067    4.6176  -19.2994   11.1805   -2.0054
    0.3958    0.3321   13.5431   -4.6577  -27.0112    6.2598  -15.0322  -31.1423    0.3093   -3.6300
   21.0350   -1.0545    5.3185   -5.2473   -8.2426   -3.6981   -4.1268    1.5286   -3.2483   -3.0456
   -0.3387   -5.0670   -4.4714    3.7281   -4.6435    0.8112    2.6322    2.9155   -1.2181   -3.6984
   -1.2674   -5.9879   15.7639   -5.3217    9.6813    0.8651   -0.2308   -5.5373   -8.2232    0.0990
   -3.9451   13.3444   13.6732  -11.3905   -0.8774  -31.0788  -14.6833   -1.9055   40.0493  -85.8589
  -11.8219 -168.9117   23.0472   20.9404  -28.8454 -626.0525    2.7134 -212.7997 1442.8896
   -3.4685   -6.4680   -5.9128    7.6808    5.5586   -6.5115    0.4120  -15.2357    7.0295    9.4155
    7.0166    8.2062   -7.6404    7.8120  -13.7164   -7.5743    1.6837   15.2793   -7.4311    2.4479
   -1.9917   -8.9697   11.0851   14.0048    8.2897  -13.4529    7.4052   -4.2026  -23.9218   -8.7432
  -13.2267    0.1952   -8.4429   -0.2586    4.4987   -2.8335   -8.2913    1.6383   -5.8662   -1.8587
   -6.8120   -0.8637    5.8988   -9.9596  -13.1125    2.8077   -3.2140    1.5560    0.6214   -4.9965
   -1.9935   -9.7550    5.5197  -14.4914   -1.8163   -0.6460   -0.3700   11.0756    1.7473   -2.3124
    0.7276    2.3060    1.0700    6.0425    5.5004    1.0977   -3.1898    4.3678    4.5692    0.2076
  -10.0271    5.3943    6.5989   -5.6380   -5.4684   -3.2758    8.6883   -3.9823    5.0759   -6.0684
  -27.1947    7.5460    0.7339   13.2547    0.4731    1.6786  -92.8426  -17.5015   -0.4525  369.8764
  -15.1436   30.4087   10.0880   -2.4126  -14.1465   -2.5046    2.6437  -18.5916   -6.6583  -12.6124
    2.1984    7.1434   19.9299   17.0559  -15.2820   -0.8408   -7.9629   24.6352    6.8197  -10.0093
    5.7431  -12.1647   -8.5438  -14.0222  -17.6847  -10.1472    4.2623  -13.3623   -5.0767    0.2850
   -6.6298    0.5807   -9.4698    6.8369   20.3533    4.2519    7.1054  -16.0735   -3.8154    6.0536
   -1.6635    6.8473    4.3747   -0.7576    4.1316   14.3060    4.7749    1.8721    6.2429    9.8267
    0.1314   -1.7494    3.4877   -3.1202   -1.2224    1.6805    0.6441   17.8133    1.7736   -1.4057
   -0.4284    2.3203   -5.4195   16.2031    4.2943    1.5646   -1.8388    2.3588    6.9500    2.6260
    2.2523    4.0665    5.0792    1.0616    0.7005  -26.7275  -11.4169    0.4950   40.0535   19.4846
  -13.6434   19.4752   -9.2649   13.5837  -52.6915  -21.5683   -1.4572 -364.5874  -52.5417   -8.2934
  954.7507
   17.3725   -9.5738    1.5005   -0.4578   -9.7004   -8.4813   11.1173   -2.2907    3.9514  -20.6080
    9.7327   -3.6495   -0.3051  -10.6773    5.6726  -17.3343   -4.9957  -10.4417   -0.6082   39.2122
   16.1611  -22.3026   -3.5432   -9.2189   -9.6757   -7.2102    8.5217  -14.8008   -9.2658   -7.1088
  -10.4284    3.3027    3.5852    5.2199    1.0101    2.1174   -1.7624   -4.7530   -9.4860    3.1677
    1.5495   -1.7654    1.2654   -0.3530   -3.3772   14.2328    3.7709    2.7761    3.5242    0.0306
    0.5560   -6.0725    3.4275  -10.7263   -2.4076   -6.3837   -3.3259   14.6236    4.7962   -4.3238
   -0.0147   -2.9429    2.0882    8.8208    2.3153    0.5691   -2.3007   -0.7766   -2.8350   -0.1966
   -4.6413    3.3240    1.2893   -3.5097   -4.9426  -18.5079  -15.8715   -3.2442    5.8202   43.7097
   12.7423   15.8289  -14.7978  -21.6530  -44.4554  -41.2084   10.7311  -69.3594 -119.6322   -0.5258
   13.1418  956.2062
    8.5289   14.0131  -24.8345    2.0262    1.5132    1.1353    2.5174   -9.6459   -3.1055   10.8479
    9.9243    6.6369  -10.4954   -2.2063   -7.1381    6.8698    2.3727    2.8620    5.4201   -9.5442
   -3.0094  -17.8873  -13.8763   18.6043    6.0053   -8.0379    4.6824  -11.4680   13.9856   36.9709
  -10.8526   -0.4183    0.6567   -5.7279    4.8550    0.7018   -8.4747  -10.7838   -7.8415    4.7585
   -4.3505   -5.1367    1.6340   -3.4935  -14.0929    3.2747   -1.0639   -0.5103   -7.2021   12.1567
   -1.4699   -4.3837    4.1407   -8.9364    3.4608    4.3445    0.4522    3.6847    3.8963    0.2383
   -1.8002    3.3504  -10.2774   -0.1259   -3.3510   -1.2398    8.3965  -10.0565  -13.0787    0.5957
    5.8897   -2.8311    3.7331   -4.8071    3.8187  -14.2972    6.0518    1.5128   -9.7223  -10.9605
  -23.0338   22.7147   -7.0918   10.5512    5.4535    4.5636    3.2395    3.5983    9.3521 -110.4748
   31.1721  -15.5068  969.1003
  -40.6533  -19.3950    5.2633  -24.3296   -7.9687  -17.4734   -1.7933   22.0649    2.0798   -3.9769
   -3.0452   10.2471    6.9797   -1.6404    3.8311    5.7020  -13.9962    8.5620  -11.8963   12.0564
   14.7308  -22.6137  -37.4428    7.6152    5.9177   -8.7980    4.5248   -5.1140  -22.7620   -2.0328
  -14.5336   -2.2631   -1.3339   -9.9656    6.7575   -7.4393  -16.5887  -16.9976   -4.8061    1.8997
   -0.7113    9.7466    4.3969    3.2958    7.5547   14.1441    4.4993    7.6178    6.8513   22.4319
    4.1627    6.3231   -1.2758   10.4437   -1.3027    2.6519    3.9894   -3.5202   -2.8933    4.9626
    7.0602   -1.5970    4.7734   -5.2593   -0.0442    6.2940   -3.7229    4.3743    4.2234    1.2600
    3.5072   13.8150    6.7285  -11.4649   -3.3388  -12.6091   18.7436    1.9799  -40.3444  -35.7885
   -2.1868    3.0819    5.5392  -24.0058   -7.0355   -1.1599   -3.1291  -63.5575   32.2526   34.4352
 -162.4555   56.7254   50.4623  839.7315
   -2.4020  -42.5870   10.6991  -11.9684   -2.0171    5.9096   -4.2150   10.4395    5.9175   -1.0500
  -30.5146    7.2658   -7.8137   17.2239  -12.2629   -2.3028    8.5391   10.6084  -15.8526   12.7221
    5.5723   -8.5217   22.0759    3.1157  -29.9803   22.6384   -6.6451  -37.9478   21.9935   13.6453
  -14.6953   -2.7886    6.5505  -27.2363  -19.9551    3.5922    2.9192    3.1600   -3.4637    5.3773
   -4.2380    2.5446    6.5982   -3.8829  -10.0513   -0.8928    5.8104   -0.8000    4.4322   -4.0265
    1.0873   -0.3875    4.8035    2.1142   -1.2424   -7.3768   -4.0058   10.0650    5.6574   -3.2027
[...]
    0.4366   -4.1553   -4.2651   16.2417  132.0137  -91.5363 -123.7310   17.6269   -5.1369  -45.4469
   -8.6653    4.2632   20.6303  -11.1941    8.1258   -4.5120  -11.4593    5.1927  -14.2479 -111.8532
   77.4813  276.9610
   12.8359  -32.5080   -1.1751    0.4749    4.5362    6.2657    5.6802    3.4626  -11.2880    1.4716
    3.5339   -6.5390   -9.4826   -1.9186   15.5910   -0.1813   -6.8241   -6.4985   -5.4323   -3.9814
    2.2491   -3.7780   -7.3138   10.8956   -0.0954    3.8772    3.7128    4.3365    4.0559   -3.8015
    3.2886  -14.5570   -2.2592   -0.5439    3.8180   -1.9326   -0.1652   -1.6125   12.0007    0.4695
    1.8540    2.6505    0.3826    0.5152    2.6696    8.7232    1.0239    2.4116    1.4396   -0.4512
    1.9652    2.5768   -4.7339    4.8087    0.5071   -6.7028    1.7687    0.3970   -2.7728    1.1057
    0.7764   -3.2638    3.7452    2.3140   -1.4191   -1.7625    1.9709    0.2660    3.2454   -0.5997
    5.3468    4.7515    2.9315   -5.1526   -1.5619   20.3165    9.8535    4.6554  -11.4613    7.2281
    2.9012    4.2844    4.7655    2.5775   -1.4598   -8.6961   -6.6606    1.8435    2.4313    4.0665
   -4.8015  -12.6527    6.5672    0.7789   -2.5016    4.9490   -5.0486    2.1104    2.6035   -3.5258
    9.4783   -0.2986    6.7621  -12.7479    6.8830   12.1496    0.5610    2.0365    3.4483   -7.7042
   -0.8361    2.4068    3.6788   -0.8873   -3.6856    4.1701   -3.4917   -0.1024    0.7717   -1.0273
   -1.5178    5.7313   -0.2438    6.9047   -1.4138   -7.6260    3.3689    3.5720   -0.1577    4.3109
    3.6098   -0.2298    2.3403   -0.4032    0.9894    4.4608    1.9821    1.0566    1.3895    0.5022
    5.8227   -2.2942   -0.5583    5.0543   -3.5272   -3.8430   -0.4915  -15.1051   18.7417  -14.8342
   32.5724   -2.4131   26.5028  -33.8704   12.4945   15.8918   17.9285  -17.5106   -4.4419  -12.8297
   16.4324   -1.6125  -28.9790   30.5734   -3.8701   34.0745  -31.6838   38.4634   22.9617  -11.5989
    7.6609    5.7016   -7.5905   11.8648    3.9326   -0.1672  -44.6262 -201.1128  126.6184 -121.0645
    7.0823   -0.3596   -0.6890   23.0610  -17.1566   -2.3589    4.2217  -10.4312    2.5460   -1.9986
   -6.5202    1.1593  362.6581
  -18.4448   16.2435    0.4609   -6.2183   -3.5884   -7.0711   -5.2916   -3.9721    6.5219   -1.8925
   -9.6107    4.8275    3.6971    6.0210  -17.5270   -2.7364    5.6320    2.7314    6.0400    2.6139
   -7.5442   -5.2384   -1.9804   -6.8528   -3.5813   -3.8218   -9.9410   -4.5116   -4.4353   -7.5634
   -5.5230    8.3398    8.2283   -4.0338   -0.8388   -7.3297   -1.3333    2.5564  -11.2929   -1.5936
   -5.5700    2.3688    0.0594   -1.2716    0.2356   -0.5691   -1.6985   -0.9075   -1.5168   -0.7793
   -0.8022    0.7147    0.7498    2.1857    0.0276    5.4441   -1.8496   -3.3301    0.8354    0.2538
   -0.9966   -1.6413    2.9190   -1.5025   -2.1686   -1.4602   -0.7318    0.3491    3.9726   -1.1671
   -5.7830    0.5901   -3.0642    3.5978    4.2778  -13.2830   -5.2532   -4.2110   13.9919   -3.4995
   -6.4125    0.1060   -0.8212   -0.6594    3.4444    6.7480    5.6276   -1.0139    0.6835   -8.9405
    7.0722    8.4433    0.6254  -10.3376    1.1446   -0.2760   -0.8100   -7.4503   -0.6423    3.3279
   -8.1545   10.0660   -7.4099    1.7809   -0.5557   -8.8876   -0.7708   -1.7498    0.9390   -1.8287
   -1.8525    0.4158   -0.4735   -0.8874    1.6973   -2.0167    4.4746    4.2111    0.5903   -1.4229
   -0.0679   -0.6764    0.5988   -4.9898    4.7371    6.1223   -0.3704    6.9142    1.3738    0.5792
    2.9513    1.6176    1.6171    1.8094   -2.3307   -0.5756    1.1884   -0.4316   -1.9989    5.5086
   -8.2892    2.1679    0.7906   -0.9865    5.4171   -2.3982   -0.8067  -23.4654  -10.5407   -5.9583
  -38.9470    8.7273  -30.7900   40.8235  -21.2671  -20.4666  -22.5955    4.4335   19.1443   49.2466
    2.1802   36.4593   28.2374  -14.8771    0.5202  -22.3614    9.0864  -21.5372   -9.6593   10.3240
   -6.8447    0.3924   -6.4029   -6.3979   -0.6633    1.5729   31.2552  136.2358 -103.2467   86.9175
   -1.3954    7.3413   -0.5559  -22.8919   18.4819    6.1824   -8.4251   10.9732   -4.7189   -9.4467
    6.8151    4.2307 -128.4656  288.8749
   11.6990  -19.8162   -0.7496   -3.5915   -0.6975    5.4737   12.7244   11.1582   -7.4863    2.3168
    1.7520   -8.1932   -5.5415   -0.1512   17.4473   -0.8456   -6.1488   -1.1367   -2.8583   -2.9519
    4.0447    0.1530    1.5032    5.7521    2.8043    1.4322    9.3568    5.7579    3.2976   -2.9451
    7.8095  -11.4589  -10.0598   -6.3252  -11.9489    5.7501   -1.4459   -2.6661   12.0426    2.3437
    0.5194   -1.5766    2.3658    1.4016    1.2703    4.2295    2.7960   -0.3002    3.3103    0.4195
    1.3771    1.0937   -1.2355   -0.2534    1.7401   -3.4058    1.8300    0.8213    0.3650    1.9837
    1.7630   -0.6005    0.0088    1.9836   -1.8378   -0.4820    0.5843    2.3770    2.1766   -0.5691
    6.4384    2.7941   -1.3097   -3.6282   -5.5390   11.7962   13.0110    9.3965   -9.0052    9.7120
   12.2280   -2.1179    1.3564    3.8931    5.8849   -1.2005   -4.0318   -3.1760    1.0230    3.9259
    0.9103   -7.6065    3.1395    3.0196    0.2705   -7.0067    3.8036   -1.7504   -1.1170    0.4758
    9.7431   -2.6857   11.2995   -8.5610    3.1785    6.7544   -2.9439    2.5663    1.6741   -2.7440
    7.8683   -0.9038    2.8736   -2.6080   -4.1674    2.3603   -3.7490   -1.8849   -1.4030   -2.6855
   -3.0027   -1.5783   -1.9995    0.9446    0.9998   -1.1710    0.6041   -4.8850   -2.2288    3.7215
    0.7065   -2.3653   -3.0282   -1.7268    4.1087    1.8536    1.6213   -0.2348   -3.6993   -0.2859
   -0.7770    1.9754    4.0402    0.5151   -3.4943    6.3225   -1.6518   -2.5436   11.2191   -1.6073
   27.1982    3.1297   27.3643  -46.4552    8.2343   30.6451   30.2197   -3.8888  -11.8950  -29.3305
    5.3728   -1.4165    0.3171   -0.6955   12.5515    5.2203   -8.7139   -6.9671   21.7800  -14.6945
  -14.4141   28.1484  -21.3623   13.5767  -21.5990   13.9764  -53.4672 -121.5598   81.9169 -129.4583
    1.0954   -2.7083   -9.6212    5.2593   -5.6260   -4.9040    2.6848   -8.4811   -6.5690   -3.5051
    0.0905   -5.2461  119.7536  -89.0468  279.5223


      MOLECULAR POINT GROUP   :   C1  


          ALPHA EIGENVALUES  
 -32.49944 -29.93005 -29.25021 -28.66889 -25.88173 -25.51159 -25.25850 -25.17337
 -24.25643 -22.98311 -22.53671 -22.25590 -21.76447 -20.82342 -20.36384 -20.26775
 -19.59731 -19.59636 -19.05485 -18.86951 -18.53100 -18.26168 -17.06889 -16.47548
 -15.65679 -15.56920 -15.24364 -15.14824 -14.72311 -13.43899 -13.11660 -12.79170
 -12.54256 -12.38285 -11.80912 -11.39483 -11.11902 -10.92722 -10.82453 -10.68676
 -10.68037 -10.61978 -10.31418 -10.10335 -10.00260  -9.91169  -9.59787  -9.28518
  -9.26134  -9.21441  -9.15205  -9.01732  -8.95757  -8.87057  -8.68377  -8.67536
  -8.58325  -8.44233  -8.34902  -8.34583  -8.29030  -8.20387  -8.11373  -8.07922
  -7.69271  -7.65335  -7.57045  -7.49730  -7.46413  -7.43936  -7.39925  -7.02154
  -6.74915  -6.50799  -6.49681  -6.43308  -6.39984  -6.38715  -6.34901  -6.31478
  -5.90554  -5.68548  -5.23388  -5.20707  -5.09287  -4.88194  -4.67039  -4.08118
  -3.97268  -3.76010  -3.35715  -2.87352  -2.39758  -2.01688  -1.04853   6.01827
   6.15175   6.21051   6.36994   6.43844   6.70217   6.78674   6.92108   6.94510
   7.51640   7.64380   7.69193   8.30682   8.45573   8.47051   8.50871   8.61187
   8.78250   8.89286   8.90744   8.94213   8.97354   9.07568   9.56037   9.57705
   9.61879   9.95404   9.99203  10.08506  10.08626  10.08851  10.12783  10.15849
  10.17260  10.20540  10.20971  10.23247  10.24558  10.25127  10.29014  10.29845
  10.36027  10.36331  10.36942  10.43074  10.69999  10.93629  10.96644  11.03183
  11.06691  11.07505  11.15892  11.16158  11.18891  11.24126  11.26055  11.31304
  11.32812  11.37779  11.38253  11.44096  11.47496  11.47667  11.52356  11.61616
  11.69014  11.72448  11.81989  11.84548  11.85336  11.89088  12.06238  12.07413
  12.13688  12.17211  12.19536  12.21870  12.34853  12.36396  14.94311  76.43402
  76.57261  78.39957


           BETA EIGENVALUES 
 -32.41256 -29.76799 -29.24396 -28.65308 -25.87470 -25.51192 -25.24586 -25.13984
 -24.24984 -22.97065 -22.51750 -22.16447 -21.73283 -20.73561 -20.36258 -20.26447
 -19.59779 -19.59643 -19.05170 -18.86396 -18.52950 -18.25558 -17.03418 -16.30282
 -15.65417 -15.54354 -15.23569 -15.14187 -14.72326 -13.44371 -13.11779 -12.52203
 -12.50588 -12.33937 -11.80795 -11.37736 -11.11574 -10.88349 -10.82340 -10.68642
 -10.68032 -10.61341 -10.27114 -10.09093  -9.99147  -9.89389  -9.59129  -9.27432
  -9.26409  -9.21797  -9.09934  -9.01704  -8.95660  -8.82887  -8.67334  -8.66333
  -8.53729  -8.43335  -8.34784  -8.34501  -8.28324  -8.20185  -8.01152  -7.81016
  -7.69188  -7.64109  -7.51605  -7.49560  -7.45854  -7.40875  -7.39543  -7.01696
  -6.74309  -6.50160  -6.49606  -6.42371  -6.34815  -6.33726  -6.26161  -6.25482
  -5.89917  -5.65591  -5.22986  -5.02592  -4.87499  -4.55126  -4.23724  -3.98490
  -3.93278  -3.61522  -3.32857  -2.88271  -2.28938  -1.98109   5.49003   6.14681
   6.27194   6.37939   6.39850   6.43979   6.80082   6.92475   6.95759   7.26560
   7.55571   7.69368   8.21664   8.45825   8.47078   8.51110   8.61527   8.80441
   8.85520   8.89139   8.90800   8.95709   8.98735   9.28968   9.57296   9.57898
   9.62104   9.95478   9.99208  10.08505  10.08601  10.08779  10.15791  10.17231
  10.20485  10.20791  10.20952  10.24177  10.25051  10.26141  10.29026  10.29849
  10.36042  10.36352  10.42155  10.43674  10.71458  10.93267  10.97363  11.02978
  11.06581  11.07658  11.15961  11.16226  11.19107  11.30297  11.31446  11.32883
  11.37778  11.38265  11.39310  11.45220  11.47474  11.47663  11.52404  11.62565
  11.68959  11.72634  11.84327  11.84876  11.89020  11.99563  12.07990  12.11081
  12.17201  12.19590  12.21625  12.26448  12.34991  12.36603  14.98099  76.56929
  76.64735  78.44862


              NET ATOMIC CHARGES AND DIPOLE CONTRIBUTIONS

  ATOM NO.   TYPE          CHARGE      No. of ELECS.   s-Pop       p-Pop       d-Pop       
    1         Cr           1.240829        4.7592     0.25899     0.05469     4.44549
    2          O          -0.574278        6.5743     1.79553     4.77875
    3          C           0.257778        3.7422     1.08258     2.65964
    4          C           0.275966        3.7240     1.08302     2.64102
    5          C          -0.312548        4.3125     1.06283     3.24971
    6          C          -0.042939        4.0429     1.06241     2.98053
    7          C           0.139244        3.8608     1.05188     2.80888
    8          C          -0.463421        4.4634     1.06012     3.40330
    9          C          -0.463237        4.4632     1.06024     3.40300
   10          C          -0.470255        4.4703     1.06049     3.40976
   11          C          -0.214398        4.2144     1.06689     3.14751
   12          C          -0.285496        4.2855     1.06249     3.22300
   13          O          -0.576004        6.5760     1.79722     4.77878
   14          H           0.146873        0.8531     0.85313
   15          H           0.145590        0.8544     0.85441
   16          H           0.108339        0.8917     0.89166
   17          H           0.157720        0.8423     0.84228
   18          H           0.148014        0.8520     0.85199
   19          H           0.155844        0.8442     0.84416
   20          H           0.107816        0.8922     0.89218
   21          H           0.141496        0.8585     0.85850
   22          H           0.111673        0.8883     0.88833
   23          H           0.140306        0.8597     0.85969
   24          H           0.109843        0.8902     0.89016
   25          H           0.141897        0.8581     0.85810
   26          O          -0.575319        6.5753     1.79533     4.77999
   27          C           0.258534        3.7415     1.08246     2.65901
   28          C           0.274945        3.7251     1.08302     2.64203
   29          C          -0.311789        4.3118     1.06298     3.24881
   30          C          -0.044112        4.0441     1.06241     2.98170
   31          C           0.139539        3.8605     1.05182     2.80864
   32          C          -0.462695        4.4627     1.06009     3.40260
   33          C          -0.463991        4.4640     1.06025     3.40374
   34          C          -0.470289        4.4703     1.06050     3.40979
   35          C          -0.214203        4.2142     1.06699     3.14721
   36          C          -0.286402        4.2864     1.06262     3.22378
   37          O          -0.576172        6.5762     1.79681     4.77936
   38          H           0.147067        0.8529     0.85293
   39          H           0.146755        0.8532     0.85325
   40          H           0.108186        0.8918     0.89181
   41          H           0.158449        0.8416     0.84155
   42          H           0.145891        0.8541     0.85411
   43          H           0.155706        0.8443     0.84429
   44          H           0.108374        0.8916     0.89163
   45          H           0.140595        0.8594     0.85941
   46          H           0.111738        0.8883     0.88826
   47          H           0.141179        0.8588     0.85882
   48          H           0.109974        0.8900     0.89003
   49          H           0.142127        0.8579     0.85787
   50          N          -0.477370        5.4774     1.62094     3.85643
   51          C           0.345961        3.6540     1.06742     2.58662
   52          C           0.345767        3.6542     1.06761     2.58663
   53          N          -0.422931        5.4229     1.84376     3.57918
   54          N          -0.423070        5.4231     1.84373     3.57934
   55          C          -0.271600        4.2716     1.06121     3.21039
   56          C          -0.231282        4.2313     1.06971     3.16158
   57          C           0.033079        3.9669     1.09051     2.87642
   58          N          -0.406950        5.4069     1.61498     3.79197
   59          C           0.031423        3.9686     1.09037     2.87821
   60          C          -0.230875        4.2309     1.06978     3.16110
   61          H           0.103789        0.8962     0.89621
   62          H           0.117081        0.8829     0.88292
   63          H           0.179741        0.8203     0.82026
   64          H           0.179512        0.8205     0.82049
   65          H           0.116989        0.8830     0.88301
 DIPOLE           X         Y         Z       TOTAL
 POINT-CHG.     0.095     0.075    -4.158     4.159
 HYBRID         0.045     0.041    -0.890     0.892
 SUM            0.140     0.115    -5.047     5.050


          ATOMIC ORBITAL ELECTRON POPULATIONS

     Atom    s        px        py        pz      x^2-y^2     xz        z^2       yz        xy
    1 Cr   0.25899   0.01780   0.01841   0.01847   0.60096   0.99945   0.64490   0.94074   1.25944
    2  O   1.79553   1.35662   1.72811   1.69402
    3  C   1.08258   0.82860   0.93561   0.89543
    4  C   1.08302   0.93723   0.82501   0.87878
    5  C   1.06283   1.04379   1.01340   1.19252
    6  C   1.06241   0.93679   0.98607   1.05767
    7  C   1.05188   0.98846   0.90320   0.91721
    8  C   1.06012   1.12057   1.17272   1.11002
    9  C   1.06024   1.12588   1.16534   1.11178
   10  C   1.06049   1.14347   1.09755   1.16875
   11  C   1.06689   0.99387   1.05318   1.10045
   12  C   1.06249   1.01703   1.03625   1.16972
   13  O   1.79722   1.75080   1.33114   1.69685
   14  H   0.85313
   15  H   0.85441
   16  H   0.89166
   17  H   0.84228
   18  H   0.85199
   19  H   0.84416
   20  H   0.89218
   21  H   0.85850
   22  H   0.88833
   23  H   0.85969
   24  H   0.89016
   25  H   0.85810
   26  O   1.79533   1.35611   1.72975   1.69413
   27  C   1.08246   0.82827   0.93545   0.89529
   28  C   1.08302   0.93708   0.82492   0.88003
   29  C   1.06298   1.04371   1.01336   1.19174
   30  C   1.06241   0.93692   0.98625   1.05854
   31  C   1.05182   0.98825   0.90318   0.91720
   32  C   1.06009   1.12282   1.17104   1.10875
   33  C   1.06025   1.12338   1.16795   1.11241
   34  C   1.06050   1.14339   1.09744   1.16896
   35  C   1.06699   0.99395   1.05336   1.09991
   36  C   1.06262   1.01681   1.03678   1.17019
   37  O   1.79681   1.75084   1.33152   1.69700
   38  H   0.85293
   39  H   0.85325
   40  H   0.89181
   41  H   0.84155
   42  H   0.85411
   43  H   0.84429
   44  H   0.89163
   45  H   0.85941
   46  H   0.88826
   47  H   0.85882
   48  H   0.89003
   49  H   0.85787
   50  N   1.62094   1.23799   1.34789   1.27055
   51  C   1.06742   0.86779   0.86644   0.85238
   52  C   1.06761   0.86050   0.87199   0.85414
   53  N   1.84376   1.20255   1.21713   1.15950
   54  N   1.84373   1.20146   1.21771   1.16017
   55  C   1.06121   1.06494   1.09652   1.04893
   56  C   1.06971   1.07052   1.07649   1.01457
   57  C   1.09051   0.95113   0.97200   0.95329
   58  N   1.61498   1.19841   1.25347   1.34009
   59  C   1.09037   0.97088   0.95969   0.94764
   60  C   1.06978   1.06558   1.07955   1.01596
   61  H   0.89621
   62  H   0.88292
   63  H   0.82026
   64  H   0.82049
   65  H   0.88301


                    (SZ)    =    0.500000
                    (S**2)  =    1.825839


          ATOMIC ORBITAL SPIN POPULATIONS

    Atom   Total    s     px     py     pz   x^2-y^2  xz     z^2    yz     xy
         Atomic
    1 Cr  0.0546 -0.001  0.000  0.000 -0.000  0.004 -0.005  0.002  0.068 -0.014
    2  O  0.0115  0.002 -0.002 -0.003  0.014
    3  C  0.0217  0.001  0.005  0.002  0.014
    4  C -0.0287 -0.003 -0.002 -0.008 -0.017
    5  C  0.0228  0.001  0.001  0.001  0.019
    6  C -0.0228 -0.001 -0.001 -0.001 -0.020
    7  C  0.0013  0.000  0.001  0.000  0.000
    8  C -0.0006 -0.000 -0.000 -0.000 -0.000
    9  C -0.0005 -0.000 -0.000 -0.000 -0.000
   10  C -0.0001 -0.000 -0.000 -0.000 -0.000
   11  C  0.0231  0.001  0.001  0.001  0.020
   12  C -0.0161 -0.001 -0.001 -0.001 -0.013
   13  O  0.0078 -0.002  0.003  0.002  0.004
   14  H -0.0007 -0.001
   15  H  0.0000  0.000
   16  H  0.0000  0.000
   17  H  0.0000  0.000
   18  H  0.0000  0.000
   19  H  0.0000  0.000
   20  H  0.0000  0.000
   21  H  0.0000  0.000
   22  H  0.0000  0.000
   23  H  0.0000  0.000
   24  H -0.0007 -0.001
   25  H  0.0005  0.001
   26  O  0.0139 -0.001  0.001  0.001  0.013
   27  C -0.0004 -0.000 -0.001  0.000  0.001
   28  C -0.0064 -0.001 -0.000 -0.002 -0.004
   29  C  0.0061  0.000  0.000  0.000  0.005
   30  C -0.0036 -0.000 -0.000 -0.000 -0.003
   31  C  0.0002  0.000  0.000  0.000  0.000
   32  C -0.0001 -0.000 -0.000 -0.000 -0.000
   33  C -0.0001 -0.000 -0.000 -0.000 -0.000
   34  C -0.0000 -0.000  0.000 -0.000  0.000
   35  C  0.0039  0.000  0.000  0.000  0.004
   36  C -0.0002 -0.000 -0.000 -0.000 -0.000
   37  O  0.0052  0.001 -0.001  0.000  0.005
   38  H -0.0002 -0.000
   39  H  0.0000  0.000
   40  H -0.0000 -0.000
   41  H  0.0000  0.000
   42  H  0.0000  0.000
   43  H -0.0000 -0.000
   44  H  0.0000  0.000
   45  H -0.0000 -0.000
   46  H -0.0000 -0.000
   47  H  0.0000  0.000
   48  H -0.0001 -0.000
   49  H -0.0000 -0.000
   50  N  0.0072 -0.001  0.004  0.004  0.000
   51  C  0.0128  0.001  0.002  0.002  0.007
   52  C -0.0159 -0.001 -0.003 -0.004 -0.008
   53  N  0.0211  0.000  0.005  0.005  0.010
   54  N -0.0143 -0.000 -0.002 -0.003 -0.009
   55  C  0.6046  0.016  0.238  0.327  0.023
   56  C -0.2134 -0.009 -0.081 -0.109 -0.014
   57  C  0.3057  0.014  0.115  0.160  0.017
   58  N  0.1507  0.006  0.061  0.086 -0.002
   59  C  0.2937  0.003  0.117  0.166  0.009
   60  C -0.2189 -0.010 -0.082 -0.111 -0.017
   61  H -0.0180 -0.018
   62  H  0.0062  0.006
   63  H -0.0103 -0.010
   64  H -0.0087 -0.009
   65  H  0.0063  0.006

 **********************
 *                    *
 * JOB ENDED NORMALLY *
 *                    *
 **********************



 TOTAL JOB TIME:            19.61 SECONDS

 == MOPAC DONE ==
