 *******************************************************************************
 ** Site#: 26130        For non-commercial use only     Version 16.299L 64BITS**
 *******************************************************************************
 ** Cite this program as: MOPAC2016, Version: 16.299L, James J. P. Stewart,   **
 ** Stewart Computational Chemistry, web: HTTP://OpenMOPAC.net. Days left: 350**
 *******************************************************************************
 **                                                                           **
 **                                MOPAC2016                                  **
 **                                                                           **
 *******************************************************************************

                              PM7 CALCULATION RESULTS


 *******************************************************************************
 *  CALCULATION DONE:                                Thu Nov 10 15:55:53 2016  *
 *  PM7        - The PM7 Hamiltonian to be used
 *  SINGLET    - SPIN STATE DEFINED AS A SINGLET
 *  UHF        - UNRESTRICTED HARTREE-FOCK CALCULATION
 *
 *
 *
 *                 CHARGE ON SYSTEM =    +2
 *
 *
 *
 *  XYZ        - CARTESIAN COORDINATE SYSTEM TO BE USED
 *  EF         - USE EF ROUTINE FOR MINIMUM SEARCH
 *  T=         - A TIME OF 172800.0 SECONDS REQUESTED
 *  DUMP=N     - RESTART FILE WRITTEN EVERY  7200.000 SECONDS
 *  HESSIAN    - WRITE OUT HESSIAN FROM GEOMERY OPTIMIZATION
 *******************************************************************************
 EF PM7 XYZ HESSIAN SINGLET UHF CHARGE=2
 1005_F_8_1

   ATOM   CHEMICAL          X               Y               Z
  NUMBER   SYMBOL      (ANGSTROMS)     (ANGSTROMS)     (ANGSTROMS)
 
     1      Fe          0.00000000  *   0.00000000  *   0.00000000  *
     2       O          0.00000000  *   0.00000000  *   1.98000000  *
     3       H          0.78254700  *   0.02732700  *   2.58619800  *
     4       H         -0.78254700  *  -0.02732700  *   2.58618400  *
     5       C          0.00000000  *   2.03000000  *   0.00014500  *
     6       N          0.00000000  *   3.18756700  *   0.00014500  *
     7       C          0.00005400  *   4.56962600  *   0.00027100  *
     8       C         -0.05394500  *   5.26944700  *  -1.20622000  *
     9       C         -0.05364700  *   6.66628700  *  -1.21000900  *
    10       C          0.00087500  *   7.39593400  *   0.00014900  *
    11       C          0.00017300  *   8.94037900  *  -0.03837000  *
    12       C          1.22702500  *   9.43482900  *  -0.83491300  *
    13       C         -1.29278300  *   9.43672700  *  -0.72138200  *
    14       C          0.06392800  *   9.58442200  *   1.36770900  *
    15       C          0.05502000  *   6.66736800  *   1.21391300  *
    16       C          0.05423800  *   5.26899500  *   1.20710100  *
    17       H         -0.09609800  *   4.73077100  *  -2.14503600  *
    18       H         -0.09623000  *   7.17747500  *  -2.16199700  *
    19       H          2.16683000  *   9.08969700  *  -0.35175100  *
    20       H          1.24597600  *  10.54546700  *  -0.88032100  *
    21       H          1.21691800  *   9.06112500  *  -1.87970900  *
    22       H         -2.18575200  *   9.09295500  *  -0.15571800  *
    23       H         -1.37719500  *   9.06295500  *  -1.76284300  *
    24       H         -1.31393300  *  10.54737000  *  -0.76506300  *
    25       H         -0.81550600  *   9.28996300  *   1.98033900  *
    26       H          0.06153000  *  10.69384700  *   1.29346200  *
    27       H          0.99458800  *   9.28854300  *   1.89873100  *
    28       H          0.09813400  *   7.16215900  *   2.17185400  *
    29       H          0.09618800  *   4.72926700  *   2.14514800  *
    30       C          2.03000000  *   0.00014500  *   0.00000200  *
    31       N          3.18756700  *   0.00014500  *   0.00000200  *
    32       C          4.56962600  *   0.00027000  *   0.00005900  *
    33       C          5.26944700  *  -1.20513300  *  -0.07437200  *
    34       C          6.66628700  *  -1.20892700  *  -0.07413800  *
    35       C          7.39593400  *   0.00013400  *   0.00087700  *
    36       C          8.94037900  *  -0.03836700  *  -0.00047700  *
    37       C          9.43482900  *  -0.85558100  *   1.21270400  *
    38       C          9.43672700  *  -0.69937700  *  -1.30481900  *
    39       C          9.58442200  *   1.36642900  *   0.08708900  *
    40       C          6.66736800  *   1.21280600  *   0.07557700  *
    41       C          5.26899500  *   1.20600900  *   0.07468000  *
    42       H          4.73077100  *  -2.14310000  *  -0.13242400  *
    43       H          7.17747500  *  -2.16005600  *  -0.13284400  *
    44       H          9.08969700  *  -0.38840900  *   2.16056000  *
    45       H         10.54546700  *  -0.90130300  *   1.23088300  *
    46       H          9.06112500  *  -1.90005500  *   1.18489800  *
    47       H          9.09295500  *  -0.11866600  *  -2.18807700  *
    48       H          9.06295500  *  -1.73925800  *  -1.40686200  *
    49       H         10.54737000  *  -0.74269400  *  -1.32670600  *
    50       H          9.28996300  *   1.99387000  *  -0.78183900  *
    51       H         10.69384700  *   1.29223400  *   0.08343400  *
    52       H          9.28854300  *   1.88160900  *   1.02661200  *
    53       H          7.16215900  *   2.16987900  *   0.13491500  *
    54       H          4.72926700  *   2.14321100  *   0.13251700  *
    55       C          0.00014500  *  -2.03000000  *   0.00000500  *
    56       N          0.00014500  *  -3.18756700  *   0.00000500  *
    57       C          0.00026900  *  -4.56962600  *   0.00006300  *
    58       C         -1.20372200  *  -5.26944700  *  -0.09449900  *
    59       C         -1.20751900  *  -6.66628700  *  -0.09432800  *
    60       C          0.00011900  *  -7.39593400  *   0.00088000  *
    61       C         -0.03835400  *  -8.94037900  *  -0.00111900  *
    62       C         -0.87572500  *  -9.43482900  *   1.19823800  *
    63       C         -0.67747700  *  -9.43672700  *  -1.31632300  *
    64       C          1.36478300  *  -9.58442200  *   0.10990900  *
    65       C          1.21137400  *  -6.66736800  *   0.09583200  *
    66       C          1.20459300  *  -5.26899500  *   0.09482100  *
    67       H         -2.14058800  *  -4.73077100  *  -0.16821600  *
    68       H         -2.15753500  *  -7.17747500  *  -0.16891900  *
    69       H         -0.42445700  *  -9.08969700  *   2.15376800  *
    70       H         -0.92174500  * -10.54546700  *   1.21565100  *
    71       H         -1.91958900  *  -9.06112500  *   1.15298400  *
    72       H         -0.08208800  *  -9.09295500  *  -2.18975400  *
    73       H         -1.71550700  *  -9.06295500  *  -1.43572800  *
    74       H         -0.72042100  * -10.54737000  *  -1.33893100  *
    75       H          2.00665600  *  -9.28996300  *  -0.74841400  *
    76       H          1.29065900  * -10.69384700  *   0.10501500  *
    77       H          1.86419200  *  -9.28854300  *   1.05791000  *
    78       H          2.16732200  *  -7.16215900  *   0.17115300  *
    79       H          2.14069700  *  -4.72926700  *   0.16831000  *
    80       C         -2.03000000  *  -0.00001600  *   0.00014400  *
    81       N         -3.18756700  *  -0.00001600  *   0.00014400  *
    82       C         -4.56962600  *   0.00002500  *   0.00027500  *
    83       C         -5.26944700  *   0.07455500  *  -1.20512200  *
    84       C         -6.66628700  *   0.07525400  *  -1.20885800  *
    85       C         -7.39593400  *   0.00085400  *   0.00024100  *
    86       C         -8.94037900  *   0.00424900  *  -0.03813400  *
    87       C         -9.43482900  *   1.30880800  *  -0.69977900  *
    88       C         -9.43672700  *  -1.20879500  *  -0.85469100  *
    89       C         -9.58442200  *  -0.08179100  *   1.36675700  *
    90       C         -6.66736800  *  -0.07430400  *   1.21288500  *
    91       C         -5.26899500  *  -0.07435700  *   1.20602900  *
    92       H         -4.73077100  *   0.13241600  *  -2.14310100  *
    93       H         -7.17747500  *   0.13408700  *  -2.15997900  *
    94       H         -9.08969700  *   2.19194200  *  -0.11947300  *
    95       H        -10.54546700  *   1.33247800  *  -0.74291600  *
    96       H         -9.06112500  *   1.40979700  *  -1.73973200  *
    97       H         -9.09295500  *  -2.15682400  *  -0.38713300  *
    98       H         -9.06295500  *  -1.18204400  *  -1.89922400  *
    99       H        -10.54737000  *  -1.22518200  *  -0.90037200  *
   100       H         -9.28996300  *  -1.02135400  *   1.88245300  *
   101       H        -10.69384700  *  -0.07628500  *   1.29267500  *
   102       H         -9.28854300  *   0.78716200  *   1.99368000  *
   103       H         -7.16215900  *  -0.13324100  *   2.16998300  *
   104       H         -4.72926700  *  -0.13233800  *   2.14322200  *
   105       C          2.14495400  *   1.77607700  *  -2.38990400  *
   106       C          1.27282500  *   0.99542000  *  -3.16406400  *
   107       P          0.00095600  *   0.00137500  *  -2.30999400  *
   108       C         -1.49832000  *   0.68831400  *  -3.09786800  *
   109       C         -2.09324300  *   1.80621600  *  -2.48317600  *
   110       C         -3.22712800  *   2.41618200  *  -3.02655300  *
   111       C         -3.79103900  *   1.91707200  *  -4.19578600  *
   112       C         -3.21671500  *   0.81419800  *  -4.82237900  *
   113       C         -2.07648100  *   0.20892800  *  -4.28126400  *
   114       C          0.22836200  *  -1.67961000  *  -2.98121900  *
   115       C         -0.83318200  *  -2.60056700  *  -2.99031800  *
   116       C         -0.65813100  *  -3.90481000  *  -3.46430900  *
   117       C          0.59003300  *  -4.32414200  *  -3.91432500  *
   118       C          1.66591700  *  -3.44456400  *  -3.87518000  *
   119       C          1.48809100  *  -2.14129800  *  -3.40118900  *
   120       C          1.42408000  *   1.01383900  *  -4.55920800  *
   121       C          2.42742000  *   1.77782000  *  -5.16107900  *
   122       C          3.28690500  *   2.54257800  *  -4.37688400  *
   123       C          3.14390600  *   2.54479700  *  -2.99147600  *
   124       H          2.05436000  *   1.79337200  *  -1.30491000  *
   125       H         -1.66837600  *   2.22460800  *  -1.57223500  *
   126       H         -3.66237800  *   3.28374000  *  -2.53759600  *
   127       H         -4.67143000  *   2.39074000  *  -4.62163600  *
   128       H         -3.65044000  *   0.42636700  *  -5.74054900  *
   129       H         -1.64508700  *  -0.63428800  *  -4.81383000  *
   130       H         -1.81660900  *  -2.31115000  *  -2.62311000  *
   131       H         -1.49774200  *  -4.59501400  *  -3.47229200  *
   132       H          0.72854200  *  -5.33827100  *  -4.27897100  *
   133       H          2.65035100  *  -3.76977200  *  -4.20320300  *
   134       H          2.36227400  *  -1.49474900  *  -3.35855100  *
   135       H          0.77006400  *   0.42306200  *  -5.19532200  *
   136       H          2.53521800  *   1.77304600  *  -6.24226400  *
   137       H          4.06628400  *   3.13750100  *  -4.84497700  *
   138       H          3.81106000  *   3.14407500  *  -2.37657100  *
 


          CARTESIAN COORDINATES 

    NO.       ATOM         X         Y         Z

     1        Fe        0.0000    0.0000    0.0000
     2         O        0.0000    0.0000    1.9800
     3         H        0.7825    0.0273    2.5862
     4         H       -0.7825   -0.0273    2.5862
     5         C        0.0000    2.0300    0.0001
     6         N        0.0000    3.1876    0.0001
     7         C        0.0001    4.5696    0.0003
     8         C       -0.0539    5.2694   -1.2062
     9         C       -0.0536    6.6663   -1.2100
    10         C        0.0009    7.3959    0.0001
    11         C        0.0002    8.9404   -0.0384
    12         C        1.2270    9.4348   -0.8349
    13         C       -1.2928    9.4367   -0.7214
    14         C        0.0639    9.5844    1.3677
    15         C        0.0550    6.6674    1.2139
    16         C        0.0542    5.2690    1.2071
    17         H       -0.0961    4.7308   -2.1450
    18         H       -0.0962    7.1775   -2.1620
    19         H        2.1668    9.0897   -0.3518
    20         H        1.2460   10.5455   -0.8803
    21         H        1.2169    9.0611   -1.8797
    22         H       -2.1858    9.0930   -0.1557
    23         H       -1.3772    9.0630   -1.7628
    24         H       -1.3139   10.5474   -0.7651
    25         H       -0.8155    9.2900    1.9803
    26         H        0.0615   10.6938    1.2935
    27         H        0.9946    9.2885    1.8987
    28         H        0.0981    7.1622    2.1719
    29         H        0.0962    4.7293    2.1451
    30         C        2.0300    0.0001    0.0000
    31         N        3.1876    0.0001    0.0000
    32         C        4.5696    0.0003    0.0001
    33         C        5.2694   -1.2051   -0.0744
    34         C        6.6663   -1.2089   -0.0741
    35         C        7.3959    0.0001    0.0009
    36         C        8.9404   -0.0384   -0.0005
    37         C        9.4348   -0.8556    1.2127
    38         C        9.4367   -0.6994   -1.3048
    39         C        9.5844    1.3664    0.0871
    40         C        6.6674    1.2128    0.0756
    41         C        5.2690    1.2060    0.0747
    42         H        4.7308   -2.1431   -0.1324
    43         H        7.1775   -2.1601   -0.1328
    44         H        9.0897   -0.3884    2.1606
    45         H       10.5455   -0.9013    1.2309
    46         H        9.0611   -1.9001    1.1849
    47         H        9.0930   -0.1187   -2.1881
    48         H        9.0630   -1.7393   -1.4069
    49         H       10.5474   -0.7427   -1.3267
    50         H        9.2900    1.9939   -0.7818
    51         H       10.6938    1.2922    0.0834
    52         H        9.2885    1.8816    1.0266
    53         H        7.1622    2.1699    0.1349
    54         H        4.7293    2.1432    0.1325
    55         C        0.0001   -2.0300    0.0000
    56         N        0.0001   -3.1876    0.0000
    57         C        0.0003   -4.5696    0.0001
    58         C       -1.2037   -5.2694   -0.0945
    59         C       -1.2075   -6.6663   -0.0943
    60         C        0.0001   -7.3959    0.0009
    61         C       -0.0384   -8.9404   -0.0011
    62         C       -0.8757   -9.4348    1.1982
    63         C       -0.6775   -9.4367   -1.3163
    64         C        1.3648   -9.5844    0.1099
    65         C        1.2114   -6.6674    0.0958
    66         C        1.2046   -5.2690    0.0948
    67         H       -2.1406   -4.7308   -0.1682
    68         H       -2.1575   -7.1775   -0.1689
    69         H       -0.4245   -9.0897    2.1538
    70         H       -0.9217  -10.5455    1.2157
    71         H       -1.9196   -9.0611    1.1530
    72         H       -0.0821   -9.0930   -2.1898
    73         H       -1.7155   -9.0630   -1.4357
    74         H       -0.7204  -10.5474   -1.3389
    75         H        2.0067   -9.2900   -0.7484
    76         H        1.2907  -10.6938    0.1050
    77         H        1.8642   -9.2885    1.0579
    78         H        2.1673   -7.1622    0.1712
    79         H        2.1407   -4.7293    0.1683
    80         C       -2.0300   -0.0000    0.0001
    81         N       -3.1876   -0.0000    0.0001
    82         C       -4.5696    0.0000    0.0003
    83         C       -5.2694    0.0746   -1.2051
    84         C       -6.6663    0.0753   -1.2089
    85         C       -7.3959    0.0009    0.0002
    86         C       -8.9404    0.0042   -0.0381
    87         C       -9.4348    1.3088   -0.6998
    88         C       -9.4367   -1.2088   -0.8547
    89         C       -9.5844   -0.0818    1.3668
    90         C       -6.6674   -0.0743    1.2129
    91         C       -5.2690   -0.0744    1.2060
    92         H       -4.7308    0.1324   -2.1431
    93         H       -7.1775    0.1341   -2.1600
    94         H       -9.0897    2.1919   -0.1195
    95         H      -10.5455    1.3325   -0.7429
    96         H       -9.0611    1.4098   -1.7397
    97         H       -9.0930   -2.1568   -0.3871
    98         H       -9.0630   -1.1820   -1.8992
    99         H      -10.5474   -1.2252   -0.9004
   100         H       -9.2900   -1.0214    1.8825
   101         H      -10.6938   -0.0763    1.2927
   102         H       -9.2885    0.7872    1.9937
   103         H       -7.1622   -0.1332    2.1700
   104         H       -4.7293   -0.1323    2.1432
   105         C        2.1450    1.7761   -2.3899
   106         C        1.2728    0.9954   -3.1641
   107         P        0.0010    0.0014   -2.3100
   108         C       -1.4983    0.6883   -3.0979
   109         C       -2.0932    1.8062   -2.4832
   110         C       -3.2271    2.4162   -3.0266
   111         C       -3.7910    1.9171   -4.1958
   112         C       -3.2167    0.8142   -4.8224
   113         C       -2.0765    0.2089   -4.2813
   114         C        0.2284   -1.6796   -2.9812
   115         C       -0.8332   -2.6006   -2.9903
   116         C       -0.6581   -3.9048   -3.4643
   117         C        0.5900   -4.3241   -3.9143
   118         C        1.6659   -3.4446   -3.8752
   119         C        1.4881   -2.1413   -3.4012
   120         C        1.4241    1.0138   -4.5592
   121         C        2.4274    1.7778   -5.1611
   122         C        3.2869    2.5426   -4.3769
   123         C        3.1439    2.5448   -2.9915
   124         H        2.0544    1.7934   -1.3049
   125         H       -1.6684    2.2246   -1.5722
   126         H       -3.6624    3.2837   -2.5376
   127         H       -4.6714    2.3907   -4.6216
   128         H       -3.6504    0.4264   -5.7405
   129         H       -1.6451   -0.6343   -4.8138
   130         H       -1.8166   -2.3112   -2.6231
   131         H       -1.4977   -4.5950   -3.4723
   132         H        0.7285   -5.3383   -4.2790
   133         H        2.6504   -3.7698   -4.2032
   134         H        2.3623   -1.4947   -3.3586
   135         H        0.7701    0.4231   -5.1953
   136         H        2.5352    1.7730   -6.2423
   137         H        4.0663    3.1375   -4.8450
   138         H        3.8111    3.1441   -2.3766

 General Reference for PM7:
 "Optimization of Parameters for Semiempirical Methods VI: More Modifications to the 
 NDDO Approximations and Re-optimization of Parameters", J. J. P. Stewart, J. Mol. Mod., 1:32, 19 (2013)
 http://www.springerlink.com/openurl.asp?genre=article&id=doi:10.1007/s00894-012-1667-x

           Empirical Formula: C62 H69 N4 O Fe P  =   138 atoms



      MOLECULAR POINT GROUP   :   C1  


 SINGLET STATE CALCULATION


          UHF CALCULATION, NO. OF ALPHA ELECTRONS =  177
                           NO. OF BETA  ELECTRONS =  177

          Geometry optimization using EF

          DIAGONAL MATRIX USED AS START HESSIAN

 CYCLE:     1 TIME:   0.621 TIME LEFT:  2.00D  GRAD.:   222.706 HEAT:  297.8802
 CYCLE:     2 TIME:   0.406 TIME LEFT:  2.00D  GRAD.:   370.672 HEAT:  293.8990
 CYCLE:     3 TIME:   0.668 TIME LEFT:  2.00D  GRAD.:   162.325 HEAT:  282.0908
 CYCLE:     4 TIME:   0.383 TIME LEFT:  2.00D  GRAD.:    94.260 HEAT:  278.0791
 CYCLE:     5 TIME:   0.371 TIME LEFT:  2.00D  GRAD.:   140.270 HEAT:  277.5757
 CYCLE:     6 TIME:   0.742 TIME LEFT:  2.00D  GRAD.:   107.862 HEAT:  275.5375
 CYCLE:     7 TIME:   0.371 TIME LEFT:  2.00D  GRAD.:   105.883 HEAT:  275.0687
 CYCLE:     8 TIME:   0.328 TIME LEFT:  2.00D  GRAD.:    54.128 HEAT:  273.8516
 CYCLE:     9 TIME:   0.641 TIME LEFT:  2.00D  GRAD.:    54.919 HEAT:  273.2539
 CYCLE:    10 TIME:   0.367 TIME LEFT:  2.00D  GRAD.:    26.606 HEAT:  272.5499
 CYCLE:    11 TIME:   0.789 TIME LEFT:  2.00D  GRAD.:    47.997 HEAT:  272.3570
 CYCLE:    12 TIME:   0.406 TIME LEFT:  2.00D  GRAD.:    42.049 HEAT:  272.0536
 CYCLE:    13 TIME:   0.406 TIME LEFT:  2.00D  GRAD.:    41.568 HEAT:  271.8325
 CYCLE:    14 TIME:   0.406 TIME LEFT:  2.00D  GRAD.:    27.969 HEAT:  271.4049
 CYCLE:    15 TIME:   0.406 TIME LEFT:  2.00D  GRAD.:    25.382 HEAT:  270.9546
 CYCLE:    16 TIME:   0.398 TIME LEFT:  2.00D  GRAD.:    60.933 HEAT:  270.6289
 CYCLE:    17 TIME:   0.398 TIME LEFT:  2.00D  GRAD.:    92.106 HEAT:  270.5625
 CYCLE:    18 TIME:   0.789 TIME LEFT:  2.00D  GRAD.:    41.676 HEAT:  269.7899
 CYCLE:    19 TIME:   0.402 TIME LEFT:  2.00D  GRAD.:    42.537 HEAT:  269.4436
 CYCLE:    20 TIME:   0.406 TIME LEFT:  2.00D  GRAD.:    31.982 HEAT:  268.9798
 CYCLE:    21 TIME:   0.695 TIME LEFT:  2.00D  GRAD.:    49.871 HEAT:  268.9070
 CYCLE:    22 TIME:   0.371 TIME LEFT:  2.00D  GRAD.:    14.349 HEAT:  268.4109
 CYCLE:    23 TIME:   0.379 TIME LEFT:  2.00D  GRAD.:    38.587 HEAT:  268.0512
 CYCLE:    24 TIME:   0.387 TIME LEFT:  2.00D  GRAD.:    22.452 HEAT:  267.1681
 CYCLE:    25 TIME:   0.434 TIME LEFT:  2.00D  GRAD.:    58.814 HEAT:  266.4558
 CYCLE:    26 TIME:   0.414 TIME LEFT:  2.00D  GRAD.:    59.906 HEAT:  265.1561
 CYCLE:    27 TIME:   1.195 TIME LEFT:  2.00D  GRAD.:    59.709 HEAT:  264.8466
 CYCLE:    28 TIME:   0.375 TIME LEFT:  2.00D  GRAD.:    35.864 HEAT:  264.1454
 CYCLE:    29 TIME:   0.789 TIME LEFT:  2.00D  GRAD.:    41.834 HEAT:  264.0080
 CYCLE:    30 TIME:   0.391 TIME LEFT:  2.00D  GRAD.:    28.505 HEAT:  263.5822
 CYCLE:    31 TIME:   0.656 TIME LEFT:  2.00D  GRAD.:    29.065 HEAT:  263.4163
 CYCLE:    32 TIME:   0.371 TIME LEFT:  2.00D  GRAD.:    20.770 HEAT:  263.1595
 CYCLE:    33 TIME:   0.387 TIME LEFT:  2.00D  GRAD.:    36.481 HEAT:  263.0233
 CYCLE:    34 TIME:   0.391 TIME LEFT:  2.00D  GRAD.:    15.163 HEAT:  262.5876
 CYCLE:    35 TIME:   0.777 TIME LEFT:  2.00D  GRAD.:    37.471 HEAT:  262.5752
 CYCLE:    36 TIME:   0.402 TIME LEFT:  2.00D  GRAD.:    14.918 HEAT:  262.0935
 CYCLE:    37 TIME:   1.008 TIME LEFT:  2.00D  GRAD.:    21.335 HEAT:  262.0422
 CYCLE:    38 TIME:   0.309 TIME LEFT:  2.00D  GRAD.:    11.447 HEAT:  261.8614
 CYCLE:    39 TIME:   0.320 TIME LEFT:  2.00D  GRAD.:    32.299 HEAT:  261.7683
 CYCLE:    40 TIME:   0.383 TIME LEFT:  2.00D  GRAD.:    13.208 HEAT:  261.4033
 CYCLE:    41 TIME:   0.359 TIME LEFT:  2.00D  GRAD.:    36.732 HEAT:  261.3851
 CYCLE:    42 TIME:   0.312 TIME LEFT:  2.00D  GRAD.:    21.158 HEAT:  260.8734
 CYCLE:    43 TIME:   0.973 TIME LEFT:  2.00D  GRAD.:    18.587 HEAT:  260.8098
 CYCLE:    44 TIME:   0.367 TIME LEFT:  2.00D  GRAD.:     8.616 HEAT:  260.6560
 CYCLE:    45 TIME:   0.387 TIME LEFT:  2.00D  GRAD.:    29.278 HEAT:  260.6111
 CYCLE:    46 TIME:   0.395 TIME LEFT:  2.00D  GRAD.:     8.930 HEAT:  260.2826
 CYCLE:    47 TIME:   0.402 TIME LEFT:  2.00D  GRAD.:    40.297 HEAT:  260.2753
 CYCLE:    48 TIME:   0.402 TIME LEFT:  2.00D  GRAD.:    26.372 HEAT:  259.7583
 CYCLE:    49 TIME:   1.164 TIME LEFT:  2.00D  GRAD.:    21.879 HEAT:  259.6874
 CYCLE:    50 TIME:   0.410 TIME LEFT:  2.00D  GRAD.:    16.985 HEAT:  259.5412
 CYCLE:    51 TIME:   0.695 TIME LEFT:  2.00D  GRAD.:    14.553 HEAT:  259.4744
 CYCLE:    52 TIME:   0.359 TIME LEFT:  2.00D  GRAD.:    10.454 HEAT:  259.3810
 CYCLE:    53 TIME:   0.734 TIME LEFT:  2.00D  GRAD.:    13.146 HEAT:  259.3502
 CYCLE:    54 TIME:   0.398 TIME LEFT:  2.00D  GRAD.:     8.397 HEAT:  259.2892
 CYCLE:    55 TIME:   0.398 TIME LEFT:  2.00D  GRAD.:    12.141 HEAT:  259.2378
 CYCLE:    56 TIME:   0.398 TIME LEFT:  2.00D  GRAD.:     8.309 HEAT:  259.1275
 CYCLE:    57 TIME:   0.406 TIME LEFT:  2.00D  GRAD.:    23.832 HEAT:  259.1036
 CYCLE:    58 TIME:   0.406 TIME LEFT:  2.00D  GRAD.:    10.930 HEAT:  258.8963
 CYCLE:    59 TIME:   1.027 TIME LEFT:  2.00D  GRAD.:    14.858 HEAT:  258.8910
 CYCLE:    60 TIME:   0.281 TIME LEFT:  2.00D  GRAD.:     9.738 HEAT:  258.8336
 CYCLE:    61 TIME:   0.277 TIME LEFT:  2.00D  GRAD.:    17.001 HEAT:  258.8189
 CYCLE:    62 TIME:   0.277 TIME LEFT:  2.00D  GRAD.:    11.248 HEAT:  258.7394
 CYCLE:    63 TIME:   0.562 TIME LEFT:  2.00D  GRAD.:    12.083 HEAT:  258.7203
 CYCLE:    64 TIME:   0.387 TIME LEFT:  2.00D  GRAD.:     9.314 HEAT:  258.6735
 CYCLE:    65 TIME:   0.387 TIME LEFT:  2.00D  GRAD.:    18.481 HEAT:  258.6700
 CYCLE:    66 TIME:   0.320 TIME LEFT:  2.00D  GRAD.:    12.539 HEAT:  258.5938
 CYCLE:    67 TIME:   0.594 TIME LEFT:  2.00D  GRAD.:    14.785 HEAT:  258.5847
 CYCLE:    68 TIME:   0.320 TIME LEFT:  2.00D  GRAD.:     4.731 HEAT:  258.5175
 CYCLE:    69 TIME:   0.309 TIME LEFT:  2.00D  GRAD.:    16.255 HEAT:  258.4992
 CYCLE:    70 TIME:   0.305 TIME LEFT:  2.00D  GRAD.:    10.610 HEAT:  258.4041
 CYCLE:    71 TIME:   1.047 TIME LEFT:  2.00D  GRAD.:     7.949 HEAT:  258.3833
 CYCLE:    72 TIME:   0.363 TIME LEFT:  2.00D  GRAD.:     7.136 HEAT:  258.3598
 CYCLE:    73 TIME:   0.383 TIME LEFT:  2.00D  GRAD.:    10.005 HEAT:  258.3394
 CYCLE:    74 TIME:   0.383 TIME LEFT:  2.00D  GRAD.:     5.054 HEAT:  258.2968
 CYCLE:    75 TIME:   0.387 TIME LEFT:  2.00D  GRAD.:    14.516 HEAT:  258.2899
 CYCLE:    76 TIME:   0.395 TIME LEFT:  2.00D  GRAD.:     7.973 HEAT:  258.2269
 CYCLE:    77 TIME:   1.043 TIME LEFT:  2.00D  GRAD.:     5.016 HEAT:  258.2105
 CYCLE:    78 TIME:   0.383 TIME LEFT:  2.00D  GRAD.:     5.205 HEAT:  258.1976
 CYCLE:    79 TIME:   0.387 TIME LEFT:  2.00D  GRAD.:     5.050 HEAT:  258.1776
 CYCLE:    80 TIME:   0.398 TIME LEFT:  2.00D  GRAD.:     5.255 HEAT:  258.1525
 CYCLE:    81 TIME:   0.391 TIME LEFT:  2.00D  GRAD.:     7.760 HEAT:  258.1193
 CYCLE:    82 TIME:   0.391 TIME LEFT:  2.00D  GRAD.:     9.108 HEAT:  258.0796
 CYCLE:    83 TIME:   0.406 TIME LEFT:  2.00D  GRAD.:    15.711 HEAT:  258.0367
 CYCLE:    84 TIME:   0.703 TIME LEFT:  2.00D  GRAD.:    16.048 HEAT:  258.0336
 CYCLE:    85 TIME:   0.719 TIME LEFT:  2.00D  GRAD.:     9.521 HEAT:  257.9789
 CYCLE:    86 TIME:   0.688 TIME LEFT:  2.00D  GRAD.:     6.456 HEAT:  257.9674
 CYCLE:    87 TIME:   0.352 TIME LEFT:  2.00D  GRAD.:     4.260 HEAT:  257.9533
 CYCLE:    88 TIME:   0.371 TIME LEFT:  2.00D  GRAD.:     9.370 HEAT:  257.9476
 CYCLE:    89 TIME:   0.391 TIME LEFT:  2.00D  GRAD.:     2.707 HEAT:  257.9239
 CYCLE:    90 TIME:   0.340 TIME LEFT:  2.00D  GRAD.:     8.369 HEAT:  257.9110
 CYCLE:    91 TIME:   0.285 TIME LEFT:  2.00D  GRAD.:     6.170 HEAT:  257.8769
 CYCLE:    92 TIME:   0.867 TIME LEFT:  2.00D  GRAD.:     4.208 HEAT:  257.8691
 CYCLE:    93 TIME:   0.281 TIME LEFT:  2.00D  GRAD.:     3.937 HEAT:  257.8589
 CYCLE:    94 TIME:   0.312 TIME LEFT:  2.00D  GRAD.:     5.132 HEAT:  257.8505
 CYCLE:    95 TIME:   0.293 TIME LEFT:  2.00D  GRAD.:     2.926 HEAT:  257.8339
 CYCLE:    96 TIME:   0.391 TIME LEFT:  2.00D  GRAD.:     8.672 HEAT:  257.8331
 CYCLE:    97 TIME:   0.402 TIME LEFT:  2.00D  GRAD.:     4.477 HEAT:  257.8058
 CYCLE:    98 TIME:   0.883 TIME LEFT:  2.00D  GRAD.:     2.620 HEAT:  257.7999
 CYCLE:    99 TIME:   0.305 TIME LEFT:  2.00D  GRAD.:     2.256 HEAT:  257.7933
 CYCLE:   100 TIME:   0.426 TIME LEFT:  2.00D  GRAD.:    10.994 HEAT:  257.7206
 CYCLE:   101 TIME:   0.711 TIME LEFT:  2.00D  GRAD.:    11.821 HEAT:  257.6912
 CYCLE:   102 TIME:   1.328 TIME LEFT:  2.00D  GRAD.:     6.144 HEAT:  257.6576
 CYCLE:   103 TIME:   0.672 TIME LEFT:  2.00D  GRAD.:     5.064 HEAT:  257.6489
 CYCLE:   104 TIME:   0.641 TIME LEFT:  2.00D  GRAD.:     2.629 HEAT:  257.6428
 CYCLE:   105 TIME:   0.305 TIME LEFT:  2.00D  GRAD.:     3.254 HEAT:  257.6407
 CYCLE:   106 TIME:   0.383 TIME LEFT:  2.00D  GRAD.:     8.200 HEAT:  257.6237
 CYCLE:   107 TIME:   1.652 TIME LEFT:  2.00D  GRAD.:     3.552 HEAT:  257.6101
 CYCLE:   108 TIME:   0.371 TIME LEFT:  2.00D  GRAD.:     3.663 HEAT:  257.6070
 CYCLE:   109 TIME:   0.395 TIME LEFT:  2.00D  GRAD.:     9.235 HEAT:  257.5984
 CYCLE:   110 TIME:   1.320 TIME LEFT:  2.00D  GRAD.:     8.212 HEAT:  257.5941
 CYCLE:   111 TIME:   0.562 TIME LEFT:  2.00D  GRAD.:     4.292 HEAT:  257.5772
 CYCLE:   112 TIME:   0.574 TIME LEFT:  2.00D  GRAD.:     2.683 HEAT:  257.5720
 CYCLE:   113 TIME:   0.367 TIME LEFT:  2.00D  GRAD.:    12.601 HEAT:  257.5717
 CYCLE:   114 TIME:   0.715 TIME LEFT:  2.00D  GRAD.:    11.349 HEAT:  257.5633
 CYCLE:   115 TIME:   0.918 TIME LEFT:  2.00D  GRAD.:     6.750 HEAT:  257.5326
 CYCLE:   116 TIME:   0.574 TIME LEFT:  2.00D  GRAD.:     3.481 HEAT:  257.5228
 CYCLE:   117 TIME:   0.309 TIME LEFT:  2.00D  GRAD.:     4.590 HEAT:  257.5205
 CYCLE:   118 TIME:   1.309 TIME LEFT:  2.00D  GRAD.:     4.429 HEAT:  257.5184
 CYCLE:   119 TIME:   0.363 TIME LEFT:  2.00D  GRAD.:     2.445 HEAT:  257.5127
 CYCLE:   120 TIME:   1.043 TIME LEFT:  2.00D  GRAD.:     5.430 HEAT:  257.5131
 CYCLE:   121 TIME:   0.371 TIME LEFT:  2.00D  GRAD.:     7.830 HEAT:  257.5130
 CYCLE:   122 TIME:   1.031 TIME LEFT:  2.00D  GRAD.:     8.091 HEAT:  257.5082
 CYCLE:   123 TIME:   0.707 TIME LEFT:  2.00D  GRAD.:     2.419 HEAT:  257.4948
 CYCLE:   124 TIME:   0.383 TIME LEFT:  2.00D  GRAD.:     7.067 HEAT:  257.4999
 CYCLE:   125 TIME:   0.395 TIME LEFT:  2.00D  GRAD.:     6.590 HEAT:  257.4944
 CYCLE:   126 TIME:   1.402 TIME LEFT:  2.00D  GRAD.:     2.067 HEAT:  257.4846
 CYCLE:   127 TIME:   0.398 TIME LEFT:  2.00D  GRAD.:     2.319 HEAT:  257.4824
 CYCLE:   128 TIME:   0.414 TIME LEFT:  2.00D  GRAD.:     7.570 HEAT:  257.4835
 CYCLE:   129 TIME:   1.035 TIME LEFT:  2.00D  GRAD.:     6.325 HEAT:  257.4794
 CYCLE:   130 TIME:   0.383 TIME LEFT:  2.00D  GRAD.:     5.563 HEAT:  257.4760
 CYCLE:   131 TIME:   0.391 TIME LEFT:  2.00D  GRAD.:     3.135 HEAT:  257.4693
 CYCLE:   132 TIME:   0.391 TIME LEFT:  2.00D  GRAD.:     5.411 HEAT:  257.4716
 CYCLE:   133 TIME:   0.395 TIME LEFT:  2.00D  GRAD.:     5.822 HEAT:  257.4666
 CYCLE:   134 TIME:   1.398 TIME LEFT:  2.00D  GRAD.:     3.755 HEAT:  257.4570
 CYCLE:   135 TIME:   0.609 TIME LEFT:  2.00D  GRAD.:     2.992 HEAT:  257.4549
 CYCLE:   136 TIME:   0.410 TIME LEFT:  2.00D  GRAD.:     3.973 HEAT:  257.4503
 CYCLE:   137 TIME:   0.402 TIME LEFT:  2.00D  GRAD.:     6.339 HEAT:  257.4474
 CYCLE:   138 TIME:   0.398 TIME LEFT:  2.00D  GRAD.:     4.623 HEAT:  257.4414
 CYCLE:   139 TIME:   0.695 TIME LEFT:  2.00D  GRAD.:     4.641 HEAT:  257.4408
 CYCLE:   140 TIME:   0.355 TIME LEFT:  2.00D  GRAD.:     4.421 HEAT:  257.4375
 CYCLE:   141 TIME:   0.375 TIME LEFT:  2.00D  GRAD.:     3.427 HEAT:  257.4329
 CYCLE:   142 TIME:   0.387 TIME LEFT:  2.00D  GRAD.:     3.789 HEAT:  257.4322
 CYCLE:   143 TIME:   0.395 TIME LEFT:  2.00D  GRAD.:     4.469 HEAT:  257.4267
 CYCLE:   144 TIME:   0.395 TIME LEFT:  2.00D  GRAD.:     5.072 HEAT:  257.4256
 CYCLE:   145 TIME:   0.402 TIME LEFT:  2.00D  GRAD.:     5.460 HEAT:  257.4237
 CYCLE:   146 TIME:   1.027 TIME LEFT:  2.00D  GRAD.:     2.314 HEAT:  257.4151
 CYCLE:   147 TIME:   0.387 TIME LEFT:  2.00D  GRAD.:     3.848 HEAT:  257.4164
 CYCLE:   148 TIME:   0.406 TIME LEFT:  2.00D  GRAD.:     3.430 HEAT:  257.4054
 CYCLE:   149 TIME:   0.387 TIME LEFT:  2.00D  GRAD.:     4.417 HEAT:  257.4074
 CYCLE:   150 TIME:   0.387 TIME LEFT:  2.00D  GRAD.:     3.616 HEAT:  257.4020
 CYCLE:   151 TIME:   1.266 TIME LEFT:  2.00D  GRAD.:     2.233 HEAT:  257.3986
 CYCLE:   152 TIME:   0.371 TIME LEFT:  2.00D  GRAD.:     5.154 HEAT:  257.3944
 CYCLE:   153 TIME:   0.324 TIME LEFT:  2.00D  GRAD.:     5.800 HEAT:  257.3849
 CYCLE:   154 TIME:   0.906 TIME LEFT:  2.00D  GRAD.:     4.480 HEAT:  257.3766
 CYCLE:   155 TIME:   0.363 TIME LEFT:  2.00D  GRAD.:     4.323 HEAT:  257.3739
 CYCLE:   156 TIME:   0.305 TIME LEFT:  2.00D  GRAD.:     4.967 HEAT:  257.3738
 CYCLE:   157 TIME:   0.293 TIME LEFT:  2.00D  GRAD.:     4.438 HEAT:  257.3702
 CYCLE:   158 TIME:   0.309 TIME LEFT:  2.00D  GRAD.:     4.351 HEAT:  257.3686
 CYCLE:   159 TIME:   0.340 TIME LEFT:  2.00D  GRAD.:     4.913 HEAT:  257.3680
 CYCLE:   160 TIME:   0.367 TIME LEFT:  2.00D  GRAD.:     4.460 HEAT:  257.3657
 CYCLE:   161 TIME:   0.352 TIME LEFT:  2.00D  GRAD.:     4.552 HEAT:  257.3636
 CYCLE:   162 TIME:   0.371 TIME LEFT:  2.00D  GRAD.:     4.426 HEAT:  257.3620
 CYCLE:   163 TIME:   0.594 TIME LEFT:  2.00D  GRAD.:     1.878 HEAT:  257.3555
 CYCLE:   164 TIME:   0.305 TIME LEFT:  2.00D  GRAD.:     2.922 HEAT:  257.3561
 CYCLE:   165 TIME:   0.320 TIME LEFT:  2.00D  GRAD.:     2.758 HEAT:  257.3468
 CYCLE:   166 TIME:   0.312 TIME LEFT:  2.00D  GRAD.:     4.167 HEAT:  257.3499
 CYCLE:   167 TIME:   0.309 TIME LEFT:  2.00D  GRAD.:     2.693 HEAT:  257.3457
 CYCLE:   168 TIME:   0.281 TIME LEFT:  2.00D  GRAD.:     4.870 HEAT:  257.3453
 CYCLE:   169 TIME:   0.312 TIME LEFT:  2.00D  GRAD.:     4.642 HEAT:  257.3397
 CYCLE:   170 TIME:   0.605 TIME LEFT:  2.00D  GRAD.:     2.762 HEAT:  257.3354
 CYCLE:   171 TIME:   0.332 TIME LEFT:  2.00D  GRAD.:     3.312 HEAT:  257.3347
 CYCLE:   172 TIME:   0.316 TIME LEFT:  2.00D  GRAD.:     2.951 HEAT:  257.3286
 CYCLE:   173 TIME:   0.316 TIME LEFT:  2.00D  GRAD.:     4.798 HEAT:  257.3294
 CYCLE:   174 TIME:   0.309 TIME LEFT:  2.00D  GRAD.:     3.301 HEAT:  257.3259
 CYCLE:   175 TIME:   0.312 TIME LEFT:  2.00D  GRAD.:     5.114 HEAT:  257.3281
 CYCLE:   176 TIME:   0.305 TIME LEFT:  2.00D  GRAD.:     4.753 HEAT:  257.3206
 CYCLE:   177 TIME:   0.871 TIME LEFT:  2.00D  GRAD.:     1.442 HEAT:  257.3115
 CYCLE:   178 TIME:   0.328 TIME LEFT:  2.00D  GRAD.:     2.923 HEAT:  257.3127
 CYCLE:   179 TIME:   0.320 TIME LEFT:  2.00D  GRAD.:     4.104 HEAT:  257.3081
 CYCLE:   180 TIME:   0.305 TIME LEFT:  2.00D  GRAD.:     3.073 HEAT:  257.3056
 CYCLE:   181 TIME:   0.305 TIME LEFT:  2.00D  GRAD.:     2.882 HEAT:  257.3021
 CYCLE:   182 TIME:   0.332 TIME LEFT:  2.00D  GRAD.:     4.437 HEAT:  257.2989
 CYCLE:   183 TIME:   0.316 TIME LEFT:  2.00D  GRAD.:     3.810 HEAT:  257.2952
 CYCLE:   184 TIME:   0.887 TIME LEFT:  2.00D  GRAD.:     2.961 HEAT:  257.2927
 CYCLE:   185 TIME:   0.305 TIME LEFT:  2.00D  GRAD.:     4.558 HEAT:  257.2912
 CYCLE:   186 TIME:   0.316 TIME LEFT:  2.00D  GRAD.:     4.398 HEAT:  257.2853
 CYCLE:   187 TIME:   0.594 TIME LEFT:  2.00D  GRAD.:     3.691 HEAT:  257.2830
 CYCLE:   188 TIME:   0.320 TIME LEFT:  2.00D  GRAD.:     3.763 HEAT:  257.2811
 CYCLE:   189 TIME:   0.363 TIME LEFT:  2.00D  GRAD.:     4.412 HEAT:  257.2768
 CYCLE:   190 TIME:   0.379 TIME LEFT:  2.00D  GRAD.:     4.692 HEAT:  257.2742
 CYCLE:   191 TIME:   0.746 TIME LEFT:  2.00D  GRAD.:     1.787 HEAT:  257.2659
 CYCLE:   192 TIME:   0.398 TIME LEFT:  2.00D  GRAD.:     3.959 HEAT:  257.2698
 CYCLE:   193 TIME:   0.363 TIME LEFT:  2.00D  GRAD.:     2.679 HEAT:  257.2584
 CYCLE:   194 TIME:   0.285 TIME LEFT:  2.00D  GRAD.:     4.498 HEAT:  257.2638
 CYCLE:   195 TIME:   0.281 TIME LEFT:  2.00D  GRAD.:     2.403 HEAT:  257.2568
 CYCLE:   196 TIME:   0.332 TIME LEFT:  2.00D  GRAD.:     5.012 HEAT:  257.2596
 CYCLE:   197 TIME:   0.539 TIME LEFT:  2.00D  GRAD.:     2.974 HEAT:  257.2487
 CYCLE:   198 TIME:   0.680 TIME LEFT:  2.00D  GRAD.:     4.653 HEAT:  257.2546
 CYCLE:   199 TIME:   0.375 TIME LEFT:  2.00D  GRAD.:     2.347 HEAT:  257.2433
 CYCLE:   200 TIME:   1.062 TIME LEFT:  2.00D  GRAD.:     3.272 HEAT:  257.2447
 CYCLE:   201 TIME:   0.375 TIME LEFT:  2.00D  GRAD.:     3.629 HEAT:  257.2400
 CYCLE:   202 TIME:   0.375 TIME LEFT:  2.00D  GRAD.:     3.681 HEAT:  257.2365
 CYCLE:   203 TIME:   0.305 TIME LEFT:  2.00D  GRAD.:     4.051 HEAT:  257.2369
 CYCLE:   204 TIME:   0.309 TIME LEFT:  2.00D  GRAD.:     3.880 HEAT:  257.2331
 CYCLE:   205 TIME:   0.301 TIME LEFT:  2.00D  GRAD.:     4.403 HEAT:  257.2314
 CYCLE:   206 TIME:   0.309 TIME LEFT:  2.00D  GRAD.:     3.842 HEAT:  257.2290
 CYCLE:   207 TIME:   0.309 TIME LEFT:  2.00D  GRAD.:     3.762 HEAT:  257.2262
 CYCLE:   208 TIME:   0.324 TIME LEFT:  2.00D  GRAD.:     4.799 HEAT:  257.2252
 CYCLE:   209 TIME:   0.309 TIME LEFT:  2.00D  GRAD.:     3.985 HEAT:  257.2193
 CYCLE:   210 TIME:   0.598 TIME LEFT:  2.00D  GRAD.:     2.251 HEAT:  257.2140
 CYCLE:   211 TIME:   0.312 TIME LEFT:  2.00D  GRAD.:     2.635 HEAT:  257.2139
 CYCLE:   212 TIME:   0.305 TIME LEFT:  2.00D  GRAD.:     3.322 HEAT:  257.2087
 CYCLE:   213 TIME:   0.293 TIME LEFT:  2.00D  GRAD.:     3.821 HEAT:  257.2082
 CYCLE:   214 TIME:   0.289 TIME LEFT:  2.00D  GRAD.:     3.516 HEAT:  257.2065
 CYCLE:   215 TIME:   0.281 TIME LEFT:  2.00D  GRAD.:     4.638 HEAT:  257.2057
 CYCLE:   216 TIME:   0.316 TIME LEFT:  2.00D  GRAD.:     4.697 HEAT:  257.2020
 CYCLE:   217 TIME:   0.613 TIME LEFT:  2.00D  GRAD.:     2.696 HEAT:  257.1958
 CYCLE:   218 TIME:   0.312 TIME LEFT:  2.00D  GRAD.:     3.185 HEAT:  257.1960
 CYCLE:   219 TIME:   0.371 TIME LEFT:  2.00D  GRAD.:     2.991 HEAT:  257.1879
 CYCLE:   220 TIME:   0.312 TIME LEFT:  2.00D  GRAD.:     4.114 HEAT:  257.1911
 CYCLE:   221 TIME:   0.312 TIME LEFT:  2.00D  GRAD.:     2.923 HEAT:  257.1857
 CYCLE:   222 TIME:   0.344 TIME LEFT:  2.00D  GRAD.:     3.997 HEAT:  257.1854
 CYCLE:   223 TIME:   0.379 TIME LEFT:  2.00D  GRAD.:     3.420 HEAT:  257.1807
 CYCLE:   224 TIME:   0.383 TIME LEFT:  2.00D  GRAD.:     4.511 HEAT:  257.1822
 CYCLE:   225 TIME:   0.348 TIME LEFT:  2.00D  GRAD.:     3.771 HEAT:  257.1772
 CYCLE:   226 TIME:   0.910 TIME LEFT:  2.00D  GRAD.:     2.226 HEAT:  257.1735
 CYCLE:   227 TIME:   0.488 TIME LEFT:  2.00D  GRAD.:     3.524 HEAT:  257.1678
 CYCLE:   228 TIME:   0.422 TIME LEFT:  2.00D  GRAD.:     4.498 HEAT:  257.1632
 CYCLE:   229 TIME:   0.699 TIME LEFT:  2.00D  GRAD.:     4.052 HEAT:  257.1618
 CYCLE:   230 TIME:   0.691 TIME LEFT:  2.00D  GRAD.:     3.233 HEAT:  257.1595
 CYCLE:   231 TIME:   0.402 TIME LEFT:  2.00D  GRAD.:     3.737 HEAT:  257.1597
 CYCLE:   232 TIME:   0.398 TIME LEFT:  2.00D  GRAD.:     3.627 HEAT:  257.1548
 CYCLE:   233 TIME:   0.402 TIME LEFT:  2.00D  GRAD.:     3.523 HEAT:  257.1543
 CYCLE:   234 TIME:   0.355 TIME LEFT:  2.00D  GRAD.:     3.352 HEAT:  257.1512
 CYCLE:   235 TIME:   0.285 TIME LEFT:  2.00D  GRAD.:     4.592 HEAT:  257.1528
 CYCLE:   236 TIME:   0.305 TIME LEFT:  2.00D  GRAD.:     3.493 HEAT:  257.1463
 CYCLE:   237 TIME:   0.285 TIME LEFT:  2.00D  GRAD.:     2.922 HEAT:  257.1447
 CYCLE:   238 TIME:   0.289 TIME LEFT:  2.00D  GRAD.:     2.884 HEAT:  257.1420
 CYCLE:   239 TIME:   0.301 TIME LEFT:  2.00D  GRAD.:     3.785 HEAT:  257.1420
 CYCLE:   240 TIME:   0.281 TIME LEFT:  2.00D  GRAD.:     2.833 HEAT:  257.1366
 CYCLE:   241 TIME:   0.285 TIME LEFT:  2.00D  GRAD.:     3.712 HEAT:  257.1381
 CYCLE:   242 TIME:   0.289 TIME LEFT:  2.00D  GRAD.:     3.272 HEAT:  257.1343
 CYCLE:   243 TIME:   0.305 TIME LEFT:  2.00D  GRAD.:     4.069 HEAT:  257.1365
 CYCLE:   244 TIME:   0.297 TIME LEFT:  2.00D  GRAD.:     2.262 HEAT:  257.1289
 CYCLE:   245 TIME:   0.293 TIME LEFT:  2.00D  GRAD.:     3.992 HEAT:  257.1315
 CYCLE:   246 TIME:   0.285 TIME LEFT:  2.00D  GRAD.:     2.988 HEAT:  257.1273
 CYCLE:   247 TIME:   0.309 TIME LEFT:  2.00D  GRAD.:     4.576 HEAT:  257.1316
 CYCLE:   248 TIME:   0.332 TIME LEFT:  2.00D  GRAD.:     1.410 HEAT:  257.1217
 CYCLE:   249 TIME:   0.355 TIME LEFT:  2.00D  GRAD.:     3.360 HEAT:  257.1223
 CYCLE:   250 TIME:   0.289 TIME LEFT:  2.00D  GRAD.:     2.661 HEAT:  257.1175
 CYCLE:   251 TIME:   0.301 TIME LEFT:  2.00D  GRAD.:     4.727 HEAT:  257.1255
 CYCLE:   252 TIME:   0.328 TIME LEFT:  2.00D  GRAD.:     1.693 HEAT:  257.1129
 CYCLE:   253 TIME:   0.672 TIME LEFT:  2.00D  GRAD.:     3.640 HEAT:  257.1199
 CYCLE:   254 TIME:   0.371 TIME LEFT:  2.00D  GRAD.:     2.948 HEAT:  257.1158
 CYCLE:   255 TIME:   0.969 TIME LEFT:  2.00D  GRAD.:     4.526 HEAT:  257.1212
 CYCLE:   256 TIME:   0.309 TIME LEFT:  2.00D  GRAD.:     3.603 HEAT:  257.1131
 CYCLE:   257 TIME:   0.879 TIME LEFT:  2.00D  GRAD.:     2.984 HEAT:  257.1107
 CYCLE:   258 TIME:   0.305 TIME LEFT:  2.00D  GRAD.:     3.202 HEAT:  257.1099
 CYCLE:   259 TIME:   0.312 TIME LEFT:  2.00D  GRAD.:     4.005 HEAT:  257.1100
 CYCLE:   260 TIME:   0.312 TIME LEFT:  2.00D  GRAD.:     1.999 HEAT:  257.1044
 CYCLE:   261 TIME:   0.332 TIME LEFT:  2.00D  GRAD.:     4.137 HEAT:  257.1078
 CYCLE:   262 TIME:   0.340 TIME LEFT:  2.00D  GRAD.:     2.280 HEAT:  257.1017
 CYCLE:   263 TIME:   0.332 TIME LEFT:  2.00D  GRAD.:     3.364 HEAT:  257.1026
 CYCLE:   264 TIME:   0.293 TIME LEFT:  2.00D  GRAD.:     2.084 HEAT:  257.0980
 CYCLE:   265 TIME:   0.422 TIME LEFT:  2.00D  GRAD.:     4.781 HEAT:  257.1045
 CYCLE:   266 TIME:   0.398 TIME LEFT:  2.00D  GRAD.:     1.718 HEAT:  257.0938
 CYCLE:   267 TIME:   0.406 TIME LEFT:  2.00D  GRAD.:     4.406 HEAT:  257.0993
 CYCLE:   268 TIME:   0.332 TIME LEFT:  2.00D  GRAD.:     0.953 HEAT:  257.0894

     GRADIENT =  0.95304  IS LESS THAN CUTOFF =  1.00000



 -------------------------------------------------------------------------------
 EF PM7 XYZ HESSIAN SINGLET UHF CHARGE=2
 1005_F_8_1



     GEOMETRY OPTIMISED USING EIGENVECTOR FOLLOWING (EF).     
     SCF FIELD WAS ACHIEVED                                   


                              PM7 CALCULATION
                                                       MOPAC2016 (Version: 16.299L)
                                                       Thu Nov 10 15:58:00 2016
                                                       No. of days remaining = 350




          FINAL HEAT OF FORMATION =        257.08914 KCAL/MOL =    1075.66097 KJ/MOL


          TOTAL ENERGY            =     -10153.23036 EV
          ELECTRONIC ENERGY       =    -149338.72813 EV  POINT GROUP:     C1  
          CORE-CORE REPULSION     =     139185.49777 EV
          COSMO AREA              =        899.93 SQUARE ANGSTROMS
          COSMO VOLUME            =       1236.47 CUBIC ANGSTROMS

          GRADIENT NORM           =          0.95304
          IONIZATION POTENTIAL    =         13.180434 EV
          ALPHA SOMO LUMO (EV)    =        -13.180 -5.354
          BETA  SOMO LUMO (EV)    =        -13.180 -5.354
          NO. OF ALPHA ELECTRONS  =        177
          NO. OF BETA  ELECTRONS  =        177
          MOLECULAR WEIGHT        =        973.0741

          MOLECULAR DIMENSIONS (Angstroms)

            Atom       Atom       Distance
            H   101    H    51    21.08241
            H   101    H    51    21.05818
            H   136    H     3     8.83944


          SCF CALCULATIONS        =        369
 
          WALL-CLOCK TIME         =  2 MINUTES AND  7.129 SECONDS
          COMPUTATION TIME        =  6 MINUTES AND 57.493 SECONDS




   ATOM   CHEMICAL          X               Y               Z
  NUMBER   SYMBOL      (ANGSTROMS)     (ANGSTROMS)     (ANGSTROMS)
 
     1      Fe          0.02024086  *   0.04073660  *   0.03349791  *
     2       O          0.04530203  *   0.21343164  *   2.15492393  *
     3       H          0.88967321  *  -0.04723133  *   2.57703302  *
     4       H         -0.64079419  *  -0.30330284  *   2.62474063  *
     5       C          0.00368503  *   1.92196624  *   0.11337327  *
     6       N         -0.00353019  *   3.08572108  *   0.17898892  *
     7       C         -0.00518576  *   4.46794814  *   0.13965335  *
     8       C         -0.01950356  *   5.10924704  *  -1.10879737  *
     9       C         -0.01549391  *   6.49537775  *  -1.14421029  *
    10       C          0.00420750  *   7.25584465  *   0.03642642  *
    11       C          0.00993355  *   8.77071498  *  -0.06543243  *
    12       C          1.24422663  *   9.20168214  *  -0.87591458  *
    13       C         -1.27849158  *   9.21114316  *  -0.78063699  *
    14       C          0.06643326  *   9.45674617  *   1.30643220  *
    15       C          0.01465332  *   6.58964694  *   1.26553471  *
    16       C          0.00974228  *   5.20016624  *   1.33139236  *
    17       H         -0.03279240  *   4.53109049  *  -2.03200933  *
    18       H         -0.02869321  *   7.00272576  *  -2.11396008  *
    19       H          2.17151089  *   8.84105521  *  -0.41675560  *
    20       H          1.31375578  *  10.29694673  *  -0.93069733  *
    21       H          1.21727183  *   8.83412220  *  -1.90613086  *
    22       H         -2.17166531  *   8.86545433  *  -0.24786652  *
    23       H         -1.33617575  *   8.83365990  *  -1.80624712  *
    24       H         -1.33914637  *  10.30658682  *  -0.83949906  *
    25       H         -0.80677509  *   9.21664089  *   1.92337805  *
    26       H          0.07857402  *  10.55086051  *   1.19465561  *
    27       H          0.97118497  *   9.18953816  *   1.86321013  *
    28       H          0.02561936  *   7.15574700  *   2.20242789  *
    29       H          0.01614513  *   4.69448070  *   2.29621064  *
    30       C          1.90184140  *   0.02450183  *   0.05900940  *
    31       N          3.06702455  *  -0.01317576  *   0.07083988  *
    32       C          4.44911707  *  -0.02710272  *   0.02928219  *
    33       C          5.12086882  *  -1.24281445  *  -0.16421855  *
    34       C          6.50779209  *  -1.23767001  *  -0.20293685  *
    35       C          7.23917532  *  -0.04812852  *  -0.05685488  *
    36       C          8.75634011  *  -0.10714907  *  -0.08907029  *
    37       C          9.22566715  *  -0.95268346  *   1.10696868  *
    38       C          9.19963533  *  -0.75819267  *  -1.40984702  *
    39       C          9.40498211  *   1.28072959  *   0.00739105  *
    40       C          6.54205456  *   1.15045857  *   0.12599768  *
    41       C          5.15263749  *   1.17505880  *   0.17262383  *
    42       H          4.56785275  *  -2.17265478  *  -0.28109181  *
    43       H          7.03942749  *  -2.18345743  *  -0.34747197  *
    44       H          8.89209643  *  -0.52312010  *   2.05860726  *
    45       H         10.32238728  *  -1.00678049  *   1.14224452  *
    46       H          8.85696931  *  -1.98195798  *   1.06030829  *
    47       H          8.81387276  *  -0.21077998  *  -2.27700323  *
    48       H          8.86841121  *  -1.79736436  *  -1.49669018  *
    49       H         10.29556772  *  -0.76736055  *  -1.49322373  *
    50       H          9.10929991  *   1.93112762  *  -0.82281639  *
    51       H         10.50139557  *   1.20126671  *  -0.03041193  *
    52       H          9.16325083  *   1.78503864  *   0.94975394  *
    53       H          7.08450836  *   2.09443909  *   0.24039103  *
    54       H          4.62512784  *   2.11601690  *   0.32071557  *
    55       C          0.03945061  *  -1.84003731  *   0.13912506  *
    56       N          0.06066828  *  -3.00294073  *   0.21418147  *
    57       C          0.06060751  *  -4.38489298  *   0.16166703  *
    58       C         -1.16362807  *  -5.06797098  *   0.12079803  *
    59       C         -1.15070338  *  -6.45107370  *   0.01869995  *
    60       C          0.05502521  *  -7.16785817  *  -0.03845266  *
    61       C          0.00403768  *  -8.68042392  *  -0.16356920  *
    62       C         -0.81955736  *  -9.24609471  *   1.00518840  *
    63       C         -0.66579351  *  -9.02515998  *  -1.50492022  *
    64       C          1.39642148  *  -9.32503638  *  -0.13036340  *
    65       C          1.26044034  *  -6.46116073  *   0.01418583  *
    66       C          1.27794780  *  -5.07407750  *   0.11408318  *
    67       H         -2.10642536  *  -4.52505369  *   0.16595986  *
    68       H         -2.10307962  *  -6.99038886  *  -0.01621297  *
    69       H         -0.40523064  *  -8.94079554  *   1.97311795  *
    70       H         -0.82427515  * -10.34482481  *   0.98724881  *
    71       H         -1.86564242  *  -8.92608893  *   0.97503116  *
    72       H         -0.10755053  *  -8.61176046  *  -2.35163930  *
    73       H         -1.69226101  *  -8.65046449  *  -1.56586497  *
    74       H         -0.71449870  * -10.11348179  *  -1.64813651  *
    75       H          2.02402524  *  -8.99830325  *  -0.96611328  *
    76       H          1.32037455  * -10.41984598  *  -0.20625568  *
    77       H          1.92414751  *  -9.11342571  *   0.80651557  *
    78       H          2.21600748  *  -6.99347100  *  -0.02183085  *
    79       H          2.22416532  *  -4.53716721  *   0.15069538  *
    80       C         -1.86101281  *   0.01002253  *   0.14021488  *
    81       N         -3.02418276  *  -0.03716111  *   0.19527087  *
    82       C         -4.40509778  *  -0.04596724  *   0.11780164  *
    83       C         -5.00805205  *  -0.00221099  *  -1.14863136  *
    84       C         -6.39200667  *   0.00947832  *  -1.22787445  *
    85       C         -7.18900110  *  -0.02497217  *  -0.07226703  *
    86       C         -8.69997837  *   0.00339976  *  -0.22090099  *
    87       C         -9.08986916  *   1.31674486  *  -0.92037709  *
    88       C         -9.13099778  *  -1.20321532  *  -1.07135612  *
    89       C         -9.42985435  *  -0.06669072  *   1.12746045  *
    90       C         -6.56104046  *  -0.07746619  *   1.17610500  *
    91       C         -5.17437551  *  -0.08735268  *   1.28544698  *
    92       H         -4.39890078  *   0.03070371  *  -2.05296233  *
    93       H         -6.86846072  *   0.04799680  *  -2.21197760  *
    94       H         -8.74618822  *   2.19018411  *  -0.35443046  *
    95       H        -10.18141892  *   1.40065858  *  -1.01521575  *
    96       H         -8.67584586  *   1.39060261  *  -1.93031898  *
    97       H         -8.80471359  *  -2.14791175  *  -0.62194212  *
    98       H         -8.73046318  *  -1.16238457  *  -2.08848589  *
    99       H        -10.22525164  *  -1.24789898  *  -1.16171209  *
   100       H         -9.20337166  *  -0.99106805  *   1.67035735  *
   101       H        -10.51970815  *  -0.04780196  *   0.98193704  *
   102       H         -9.18725416  *   0.78533736  *   1.77252893  *
   103       H         -7.15656421  *  -0.10931317  *   2.09430145  *
   104       H         -4.70113490  *  -0.12247671  *   2.26553815  *
   105       C          2.04440013  *   1.97508318  *  -2.45285435  *
   106       C          1.24669953  *   0.99598930  *  -3.06553469  *
   107       P         -0.02666467  *   0.02175066  *  -2.11796315  *
   108       C         -1.55498026  *   0.68680161  *  -2.95818921  *
   109       C         -2.20930509  *   1.81532468  *  -2.43334590  *
   110       C         -3.29980662  *   2.36786882  *  -3.10133639  *
   111       C         -3.75752515  *   1.80892841  *  -4.29197653  *
   112       C         -3.11333669  *   0.69396505  *  -4.81840756  *
   113       C         -2.01338879  *   0.13770643  *  -4.16605482  *
   114       C          0.16890484  *  -1.70273335  *  -2.80632166  *
   115       C         -0.94240592  *  -2.55718028  *  -2.90841843  *
   116       C         -0.77492821  *  -3.86611795  *  -3.35503869  *
   117       C          0.48993129  *  -4.34081582  *  -3.69441952  *
   118       C          1.59241755  *  -3.49731789  *  -3.59497223  *
   119       C          1.44034592  *  -2.18174176  *  -3.15807231  *
   120       C          1.36727865  *   0.79168879  *  -4.45239666  *
   121       C          2.26474262  *   1.55095248  *  -5.19966020  *
   122       C          3.04906543  *   2.52308999  *  -4.58459226  *
   123       C          2.93597494  *   2.73048781  *  -3.21283994  *
   124       H          2.01275868  *   2.19179896  *  -1.38291459  *
   125       H         -1.90471309  *   2.30858146  *  -1.50633257  *
   126       H         -3.79591057  *   3.24963821  *  -2.68915662  *
   127       H         -4.61276086  *   2.24912496  *  -4.81243734  *
   128       H         -3.46210235  *   0.25389198  *  -5.75643337  *
   129       H         -1.53808332  *  -0.72815291  *  -4.64484599  *
   130       H         -1.96078083  *  -2.24031033  *  -2.65677801  *
   131       H         -1.64306216  *  -4.52283107  *  -3.44331751  *
   132       H          0.61419224  *  -5.36945223  *  -4.04286237  *
   133       H          2.58454215  *  -3.86286190  *  -3.87087280  *
   134       H          2.34210547  *  -1.55865445  *  -3.11965274  *
   135       H          0.77329869  *   0.04440825  *  -4.99473871  *
   136       H          2.34890865  *   1.38224823  *  -6.27693800  *
   137       H          3.74841519  *   3.12130672  *  -5.17578581  *
   138       H          3.54954629  *   3.49154172  *  -2.72759985  *

                             CARTESIAN COORDINATES

   1   Fe        0.020240861     0.040736604     0.033497908
   2    O        0.045302029     0.213431635     2.154923935
   3    H        0.889673212    -0.047231326     2.577033021
   4    H       -0.640794194    -0.303302839     2.624740625
   5    C        0.003685028     1.921966236     0.113373267
   6    N       -0.003530188     3.085721079     0.178988919
   7    C       -0.005185763     4.467948144     0.139653355
   8    C       -0.019503561     5.109247035    -1.108797369
   9    C       -0.015493910     6.495377751    -1.144210288
  10    C        0.004207500     7.255844648     0.036426422
  11    C        0.009933550     8.770714977    -0.065432434
  12    C        1.244226628     9.201682141    -0.875914576
  13    C       -1.278491579     9.211143165    -0.780636992
  14    C        0.066433263     9.456746168     1.306432203
  15    C        0.014653319     6.589646944     1.265534707
  16    C        0.009742282     5.200166240     1.331392357
  17    H       -0.032792398     4.531090493    -2.032009327
  18    H       -0.028693213     7.002725761    -2.113960081
  19    H        2.171510886     8.841055212    -0.416755598
  20    H        1.313755782    10.296946726    -0.930697328
  21    H        1.217271833     8.834122195    -1.906130863
  22    H       -2.171665311     8.865454335    -0.247866519
  23    H       -1.336175753     8.833659896    -1.806247116
  24    H       -1.339146374    10.306586825    -0.839499057
  25    H       -0.806775088     9.216640892     1.923378051
  26    H        0.078574018    10.550860509     1.194655612
  27    H        0.971184974     9.189538159     1.863210129
  28    H        0.025619365     7.155746996     2.202427894
  29    H        0.016145130     4.694480699     2.296210642
  30    C        1.901841403     0.024501825     0.059009397
  31    N        3.067024554    -0.013175764     0.070839884
  32    C        4.449117075    -0.027102725     0.029282189
  33    C        5.120868823    -1.242814451    -0.164218549
  34    C        6.507792090    -1.237670009    -0.202936855
  35    C        7.239175325    -0.048128517    -0.056854877
  36    C        8.756340109    -0.107149074    -0.089070288
  37    C        9.225667154    -0.952683460     1.106968675
  38    C        9.199635327    -0.758192671    -1.409847023
  39    C        9.404982110     1.280729592     0.007391045
  40    C        6.542054555     1.150458570     0.125997677
  41    C        5.152637486     1.175058804     0.172623831
  42    H        4.567852747    -2.172654778    -0.281091813
  43    H        7.039427492    -2.183457433    -0.347471967
  44    H        8.892096431    -0.523120103     2.058607264
  45    H       10.322387279    -1.006780491     1.142244521
  46    H        8.856969309    -1.981957983     1.060308286
  47    H        8.813872764    -0.210779985    -2.277003229
  48    H        8.868411215    -1.797364363    -1.496690182
  49    H       10.295567719    -0.767360554    -1.493223734
  50    H        9.109299906     1.931127621    -0.822816392
  51    H       10.501395567     1.201266706    -0.030411926
  52    H        9.163250829     1.785038639     0.949753945
  53    H        7.084508356     2.094439090     0.240391034
  54    H        4.625127844     2.116016897     0.320715568
  55    C        0.039450612    -1.840037314     0.139125058
  56    N        0.060668276    -3.002940727     0.214181466
  57    C        0.060607505    -4.384892983     0.161667033
  58    C       -1.163628070    -5.067970978     0.120798029
  59    C       -1.150703381    -6.451073704     0.018699949
  60    C        0.055025215    -7.167858167    -0.038452661
  61    C        0.004037679    -8.680423921    -0.163569204
  62    C       -0.819557355    -9.246094711     1.005188400
  63    C       -0.665793515    -9.025159975    -1.504920224
  64    C        1.396421484    -9.325036379    -0.130363405
  65    C        1.260440341    -6.461160732     0.014185826
  66    C        1.277947799    -5.074077501     0.114083176
  67    H       -2.106425357    -4.525053692     0.165959863
  68    H       -2.103079615    -6.990388858    -0.016212967
  69    H       -0.405230640    -8.940795541     1.973117951
  70    H       -0.824275153   -10.344824806     0.987248815
  71    H       -1.865642419    -8.926088934     0.975031162
  72    H       -0.107550530    -8.611760456    -2.351639302
  73    H       -1.692261013    -8.650464493    -1.565864973
  74    H       -0.714498698   -10.113481793    -1.648136511
  75    H        2.024025241    -8.998303249    -0.966113284
  76    H        1.320374545   -10.419845983    -0.206255677
  77    H        1.924147509    -9.113425708     0.806515565
  78    H        2.216007482    -6.993470996    -0.021830849
  79    H        2.224165323    -4.537167207     0.150695381
  80    C       -1.861012809     0.010022530     0.140214883
  81    N       -3.024182755    -0.037161114     0.195270872
  82    C       -4.405097782    -0.045967245     0.117801636
  83    C       -5.008052046    -0.002210994    -1.148631359
  84    C       -6.392006667     0.009478316    -1.227874452
  85    C       -7.189001096    -0.024972173    -0.072267030
  86    C       -8.699978374     0.003399758    -0.220900988
  87    C       -9.089869160     1.316744865    -0.920377087
  88    C       -9.130997779    -1.203215320    -1.071356116
  89    C       -9.429854349    -0.066690715     1.127460450
  90    C       -6.561040457    -0.077466187     1.176105004
  91    C       -5.174375510    -0.087352681     1.285446978
  92    H       -4.398900777     0.030703707    -2.052962327
  93    H       -6.868460716     0.047996803    -2.211977598
  94    H       -8.746188222     2.190184106    -0.354430463
  95    H      -10.181418917     1.400658583    -1.015215750
  96    H       -8.675845864     1.390602610    -1.930318976
  97    H       -8.804713588    -2.147911745    -0.621942120
  98    H       -8.730463183    -1.162384574    -2.088485886
  99    H      -10.225251643    -1.247898984    -1.161712092
 100    H       -9.203371662    -0.991068051     1.670357345
 101    H      -10.519708149    -0.047801957     0.981937036
 102    H       -9.187254155     0.785337355     1.772528932
 103    H       -7.156564208    -0.109313169     2.094301454
 104    H       -4.701134904    -0.122476711     2.265538149
 105    C        2.044400130     1.975083178    -2.452854350
 106    C        1.246699529     0.995989303    -3.065534690
 107    P       -0.026664673     0.021750661    -2.117963151
 108    C       -1.554980263     0.686801613    -2.958189214
 109    C       -2.209305091     1.815324677    -2.433345903
 110    C       -3.299806623     2.367868821    -3.101336393
 111    C       -3.757525145     1.808928413    -4.291976525
 112    C       -3.113336689     0.693965048    -4.818407564
 113    C       -2.013388788     0.137706435    -4.166054816
 114    C        0.168904837    -1.702733347    -2.806321655
 115    C       -0.942405919    -2.557180284    -2.908418429
 116    C       -0.774928212    -3.866117952    -3.355038687
 117    C        0.489931288    -4.340815819    -3.694419519
 118    C        1.592417554    -3.497317889    -3.594972232
 119    C        1.440345916    -2.181741762    -3.158072314
 120    C        1.367278653     0.791688785    -4.452396657
 121    C        2.264742616     1.550952481    -5.199660202
 122    C        3.049065428     2.523089986    -4.584592258
 123    C        2.935974945     2.730487814    -3.212839944
 124    H        2.012758683     2.191798960    -1.382914593
 125    H       -1.904713091     2.308581456    -1.506332571
 126    H       -3.795910571     3.249638213    -2.689156615
 127    H       -4.612760860     2.249124957    -4.812437341
 128    H       -3.462102351     0.253891985    -5.756433365
 129    H       -1.538083322    -0.728152913    -4.644845994
 130    H       -1.960780829    -2.240310326    -2.656778008
 131    H       -1.643062157    -4.522831067    -3.443317507
 132    H        0.614192242    -5.369452230    -4.042862369
 133    H        2.584542153    -3.862861902    -3.870872803
 134    H        2.342105466    -1.558654446    -3.119652743
 135    H        0.773298687     0.044408247    -4.994738715
 136    H        2.348908652     1.382248233    -6.276938004
 137    H        3.748415187     3.121306720    -5.175785814
 138    H        3.549546291     3.491541717    -2.727599847


           Empirical Formula: C62 H69 N4 O Fe P  =   138 atoms

    Hessian matrix from geometry optimization
 1053.0951
  -22.7637 1005.0254
   -1.2616   26.2566  810.5253
  -66.4076   -0.6783   -3.1355  659.8293
   12.9511  -35.3163  -25.0577   38.1967  288.4313
   -5.6301  -36.6937 -147.9662   14.1452 -120.9600  437.1949
   15.6280    0.0238  -20.0507 -263.2781   75.6477 -141.2874  436.5533
   -9.3324    0.3957   -1.5582   89.9689  -71.0887   57.8188  -97.4248  215.9934
   -2.2149    5.1565   -7.9859 -121.7623   71.2565 -124.3644  132.9241  -63.9806  231.7178
   -7.3934    2.2922   22.3846 -205.1452 -120.1445  125.0881   16.8942    0.9515  -13.0210  381.0462
    3.2777   -3.0765   10.6252 -137.9392 -110.3751   69.5893   13.6258  -21.8109  -13.6643  115.8879
  256.4984
   11.9739    6.9790  -11.1165  114.3940   95.5655 -122.8497    1.2667  -20.2800  -27.3907 -124.4371
  -90.2768  236.7555
 -138.4944    6.8061   -2.1244   -2.9301   -3.1255   -1.6538    4.2309    0.7822    2.8426    2.8260
    2.2502   -4.1889  221.2188
    6.4939 -157.1695   63.5606    7.4807  -24.0950  -48.7791    3.5397   23.7038   10.6422  -10.7837
   20.1714   17.7065    3.6030 2621.1236
   -6.7888   28.0073 -136.3406    2.3193   -4.5880    2.6757    9.4624    4.7730    4.3240  -10.6291
    1.5075    5.7925    3.2004   56.2371  248.8543
    8.7396   -5.8651    6.2538   -6.2352    2.7723    2.1514   -1.3946   -2.7229   -2.0076    2.5833
    0.3328   -3.3360   -7.4793   -6.4617   -2.1341  200.0517
   11.9008 -199.1334 -104.4388  -25.6359    9.5943   67.9180   -0.2209  -15.3146   -7.9997   24.7895
   -3.3560  -21.8320   -7.6789-2266.1683  -48.6375    9.4301 3234.0387
    7.9270  -27.1155   27.7827    2.9321    7.1346    2.2882   -4.2673    1.7323   -3.8726   -5.6301
   -1.3655   -1.9749   -2.9987  -73.9023  -45.8374   -0.1781   72.1970  253.1089
  -10.7080    3.5762   -6.2447   -8.7225    1.3625   -3.0701    5.9009   -1.8550    1.7428    0.6977
    1.2055   -1.7789   -1.4401    2.6674    0.3565   -7.5312    0.8288    2.4371  216.2645
    3.7920   -3.8402   -1.8477    5.8909   23.5749  -10.8537   13.5457   -6.4705    7.7223  -20.3089
  -10.2141   10.9077   -0.8835 -109.0220  -14.2365    2.0291 -649.3746   14.4136   -3.5962 1420.4896
    2.8441   18.5529  -18.5116  -16.4671    4.5129   -1.6452   11.3678    5.0140    5.4632    6.5748
   11.8905   -1.6169    1.4542  -22.5783    5.9976   -0.4812   30.0954  -89.4427   46.0011   18.1689
 1521.7683
  -12.6770    2.0518    4.4835   -4.8665    1.0037   -1.1436    0.4810   -1.1018   -0.0620    0.6623
   -1.2564   -1.0419   -1.0120   -3.2211    0.1609   -1.0098    5.5977   -6.3897  -19.8036   11.7980
  -18.4645  212.8169
  -26.9999  -26.5006   36.5656    0.4932  -16.0195  -39.0918   11.6121    3.4399    3.1628  -15.2199
    5.0168   -0.7027    3.3290  -33.3313  -21.2675    1.2764  -25.3433   49.4180   15.5219 -240.6379
  169.9983  -17.3531 1472.7067
  -19.0311   -5.0676  -21.6709    4.6438   22.8653  -29.6083   13.5209   -1.2896    6.6237  -15.9125
   -1.6947    7.9003    1.5954   27.4626    4.1581    3.9850   49.2606   -5.8236  -33.5726  256.9929
 -621.4716   48.6764 -105.1080 1230.3940
  -19.6456   -5.9250   -5.7693   -4.7437    1.3654    1.8006    1.1693   -0.0152   -1.0910    0.0680
    0.1773   -3.0494   -0.3535    4.9510   -1.1820   -6.3107   -8.0848    3.3062    9.4634    4.8346
   -8.1751  -18.7965    9.3494  -10.5271  220.9937
   -1.9462    2.5833  -26.4481   -4.8091  -13.3667   58.3946  -26.3922    1.8819  -18.5803   29.0553
    9.0081  -21.6475    2.0296   44.4709    3.7307   -4.3634  -22.1435  -22.3026    8.0793  -61.7548
  173.0767   -0.3167 -824.8082  -40.3431    1.3079 1454.7646
    4.3479   -5.9297  -64.9189    6.6134   -7.4722    0.2067    1.5318   17.5970  -12.7956   -7.6978
   13.6127   -6.6251    3.8531   39.3470    2.0536   -3.2910  -43.0024   -6.7381    3.3123   55.4175
   16.9078   -5.1280   72.4839 -145.9710   39.3451   95.7334 1214.5572
   -3.5964   12.8384   12.2861  -10.0572    0.7553   -3.8669    3.6478   -1.6544    4.2755    2.3170
    0.2222    1.4022   -2.5742   -6.7324   -0.2975   -3.3972   11.4562   -3.2768  -14.4014    0.2483
    8.5707   10.7115   -5.8064   11.4788  -38.2900   -9.0263  -24.2975  260.6241
    3.3112  -48.3591    7.9811    1.6599   17.5801  -11.9937    0.8031   -7.7334    5.6380   -3.1992
   -4.8401    7.1609   -0.3852   43.0140   13.9278    0.7540  -20.4015  -20.7538   -2.0912    1.6239
    3.7859   -0.2990  -95.5395  -28.9875  -12.5595 -288.7338 -311.2395   -9.1258 1185.8478
   27.5762   26.9184   63.7068   -0.7487   16.2930   -9.1195   -1.6062   -1.0220   16.8018    3.0718
    2.5439   13.7173   -5.5402  -22.6938  -16.4353    2.6781   45.1250  -27.2008   -5.6303  -45.4208
  -61.4016    5.5832 -181.4816    4.2149  -30.8203 -214.1940 -604.2362   56.3643  -34.6538 1519.8732
  -35.8941    7.8759  -10.6128  -10.8234   -2.8504    2.0206    8.8598    2.9056    1.1266    2.1036
    0.6420   -4.8284    9.0186    1.1503    1.1442   -5.7519  -18.8330   -9.2085   -8.4271    2.0829
   20.7751    5.9896    3.3812   14.7957   26.5183    3.2184   -3.1487 -110.9690   13.3970   13.0810
  898.6300
   -3.0926   24.2807  -30.2113   -1.9043    1.7573   -0.0523   13.7789    6.7474    6.7580   -7.5888
    6.2620    7.5608    0.0434  -30.5455    4.0111    2.1957   17.6837  -10.0736   -4.1915   -1.2160
   15.4518    4.0382    1.6264  -20.7485   -2.1631  -61.3648  -54.0211    4.7334 -335.5408   25.9936
  -18.5126  930.8861
   -8.7114   20.5224  -21.7754   -8.7865   -0.6155   -6.5097    8.1438   -5.0070    2.7528   -2.9682
   -0.0855   -4.0282   -0.8410  -18.9840  -13.6956    1.6871   12.9698   10.3758   -1.0897  -14.8615
    0.6936    4.3038   10.7443  -21.7680  -14.3189  -61.6799  -16.8430   22.3472    6.6413 -124.1220
  -22.7758   17.7291 1005.4142
   -3.9253    3.4071   -1.8186   15.3165   10.3741   -9.6767  -12.0945    1.1651   -7.1161  -11.0106
   -9.5157    3.4178   -7.9572   -6.7984   10.5904   -5.5907   33.6630  -13.0339   -5.9972   -6.3835
   -8.5541  -13.4682  -11.6591  -18.5877  -17.4102   -4.9056    2.0116   21.7918  -29.7193   -7.4733
 -279.8729  -44.9615  113.4588  727.5436
   11.1677  -28.9856    4.9854   41.2860    2.5186    2.2871  -36.0544    5.1177  -15.0940   -6.2763
  -12.3231    3.9037   -7.3291    9.9364   -5.2160    6.2087   11.3613    6.5271    0.9227   -3.4683
  -24.5727   -1.1177  -17.2981    1.3473    0.6921  -18.6583   12.5753  -24.7409  -53.9503   15.4543
  -44.7030 -122.0947   44.4912  -49.1508  769.2240
   13.7243   17.1885   -9.7940   40.0087   18.8891   -3.6899  -25.3891    6.2161  -10.9234  -15.8455
  -14.0653   12.2248   -3.5050   -0.2173   -6.1207   -5.4239   -9.9609  -11.3380   -2.3401   -2.0224
  -27.4809   -0.9570   12.0583  -15.0831   -5.2001   12.9802  -27.8924   -3.3503   -0.0434  -20.5893
  115.4455   42.0772 -207.8797  -59.2976    4.6884  710.3621
  -10.6537  -14.7696    4.0277   -2.8604  -15.5961    3.9871   -5.5711    1.7053    2.5397    2.9403
    5.9547    2.7048   -6.5226    8.6391   -3.7384   -5.0646  -27.2734   11.0547  -11.3990    4.1597
   -3.4051   -5.1654    9.2961   -0.0071  -17.8717    4.3444    0.1594   17.0175   12.4641  -13.5129
 -309.5425   65.1939  -83.6590 -147.3505   -5.9807  -67.7847  775.3155
   22.9782  -33.2880   16.3034   -9.5196   -3.5820    4.2601   -6.6998   -1.9188   -2.0925   17.9176
    1.3613   -5.5749   -1.7451   -4.7099   -4.2051   -2.3245  -11.5172   -0.3091    4.7204    8.8170
  -14.0392   -2.1006    2.3959   14.0068   -0.0564   -4.2126  -11.8055   24.5094  -46.5412    0.2329
   57.0025 -127.1433   27.2849   21.5498   25.3834   -2.3328    9.0584  767.6465
   -2.9032    1.2418  -29.7419   -4.4579   12.6744  -13.3293    9.3577   -4.5329    7.4665   -1.3835
   -1.8882    5.2773    3.6188    0.0182    1.4507    3.6290  -16.9782  -17.8343   -0.0366   10.8134
  -15.4372    6.4914   -0.3201  -21.6096    4.9585   20.9259  -34.6228    0.5183   12.3606  -29.7494
  -88.6970   45.5475 -197.0038   72.7496  -21.6814   51.6519   19.5814    8.2108  728.4443
  -44.1042   -9.8888  -19.5253  -76.6379    1.5939   -2.6450   36.9029  -16.8672   20.4181   24.5953
   17.2837  -15.5375   -3.2149    8.6167    7.6188  -11.1072    0.3764   -2.2393  -14.6830    1.9694
  -11.5123  -11.5154   12.2823   -0.4745  -20.7217   -0.6809  -12.0427   -2.2939   -9.1503  -21.6704
 -145.8995   16.2962    6.8146   44.6453   79.9456  160.9001   16.2306  -92.6478 -157.9915  651.3306
   -1.1389  -46.1674    0.7905  -41.8492  -19.5734   16.5990   12.2905    2.1860    6.3909   27.9020
   23.0836  -16.2520    5.8429   29.3859    5.6907   -3.3363  -16.8421    2.6808   -1.9926    9.5664
  -25.7821    5.5565  -27.8500   15.6846    0.4792  -28.8198   39.9011    1.8486  -39.4905  -12.8047
   10.3164 -145.8859  -75.5600  -10.0727   25.2574   45.3145   -1.2268   38.1935   38.7176  -13.6918
  731.2068
   16.5604   15.8133  -20.8802    0.0188   17.0498   -6.0822    3.1749   -4.0049   -3.9615   -0.7083
   -4.6558   -3.4640   -2.9939   -4.7623    4.5233    4.1292   20.7033  -16.5594   -5.7300    7.8880
  -22.2458    2.7136  -12.4805   -0.3030    0.1764   15.1681  -13.3933   -4.3621   -7.8681  -12.2787
   -0.0633  -93.8494 -352.9419   11.1696  -19.7035  -97.1940   -6.7339  -20.6198  -92.7787    6.6487
  -11.5311  823.3761
  -25.2035   -6.9345   -6.3480   -9.0165    0.9720    1.7014    3.2790   -1.7220    1.3656    1.6908
    2.3087   -3.5881   -0.6726    3.9292    0.1651   -4.7786   -5.0326    1.0520    8.1787   -4.7460
   -6.0284  -18.5014    4.8920   -7.2202   18.9622   -1.5353   -5.5787  -42.1729   16.1329  -34.6282
   25.3526    4.1468  -16.0676  -18.8763    4.2539   -2.9176  -15.5792   -5.6787    1.8858  -18.5381
   -2.3135    3.2212  223.5372
   -8.7128   -1.6368  -13.5668   -0.6282  -12.1702    8.9650   -6.5102    6.9541   -2.0085    6.4241
   11.2434   -6.7071    4.1172   16.4102    6.1376    0.2111  -26.3017   13.1643   -6.3231  -95.1590
 -146.0756    2.8855   -1.1178  -24.3620    5.3134   58.9826   63.9273    0.8220 -281.1437  214.8478
    5.3603  -50.2367   48.3202    4.3593    2.9701   -7.2002   -9.2675    9.3994   -9.1751   -5.0879
  -12.1195   -7.7928   -4.4167 1416.8342
  -18.3950    1.5694  -30.0121   23.6163   26.0414  -17.9536    2.1061    4.2432    0.0528  -21.2281
   -8.2913   14.7724    2.4850  -16.8901   12.2373   -0.5947   20.5706  -20.5409    0.7159  -13.3379
   43.9928    4.0327   13.2552  -21.1621  -11.3761  -48.5390 -108.1093  -18.4140  302.5700 -643.5989
   -7.5975   47.6153  -27.7681  -12.9461  -19.7809  -19.2434   10.5118  -22.7476  -19.0688  -11.5453
    1.6027  -11.4868   36.0890 -137.2370 1242.8032
  -14.2999    4.2353    6.2840   -7.9056   -3.5729    0.9130   -0.4819   -0.4723    0.6703    3.6132
    2.6799   -2.5568   -1.6406   -4.0478    1.4101   -0.3594   -0.5548   -6.3834  -19.4325  -11.3854
  -18.2097    9.9983   -2.2363    0.9098  -20.8455   -3.4044   -1.9736   12.2473    5.7355    5.9404
    0.4198    1.6288    7.4584   -7.8081   -0.7589   -1.9684   -4.7283   -1.1701    3.9771  -10.0303
    3.7192    2.9279  -20.2445    9.7666   -2.4778  213.0138
    2.3720   -7.4585   46.5834   22.6960    0.4418    3.4968  -19.1642    4.4598   -5.9449   -2.8628
   -1.8006    4.6170   -1.0050    5.0548   -5.9370    0.4617  -72.5632  -34.5795   -9.9073 -258.7319
 -224.3247    1.9050   42.8179  -26.8651   -1.0616  -29.8433  -28.5350    3.9033  -55.4250  177.9333
   -0.4654   22.4314   -1.8544   -3.2843  -31.7070   14.8896   -1.5800  -27.9351    2.2551   -6.1288
  -30.1862   -1.5251    2.3578 -776.4206  -38.1135    3.3191 1409.1961
  -14.7821   19.9209   -7.0159  -10.0287   -8.5110   -1.9799   -0.5099    9.3265    7.2400   10.5043
   16.9805   -1.0272    1.5276   12.9179    1.0680    0.6806  -89.9586   -4.6718  -27.3015 -275.8345
 -638.0241   -5.1875   50.7621 -117.4094   -4.5406  -22.8309  -39.5181    4.9956   36.0279   56.2244
    2.5761   11.6545   -8.9543   -0.5568   12.7345  -24.7247    8.6342   20.8427  -23.9259   10.9688
    2.6628  -26.8477   -7.2087   80.3422 -178.8262   42.0291   98.9287 1244.4634
   -4.0491    0.3743   -0.5318   -0.8572   -1.3445    0.3419   -0.4161   -0.6704   -0.5280    0.0039
   -0.5725   -0.6317   -0.2517    0.4969   -0.7540   -1.8324   -0.4806    0.6968    1.1882    0.6379
   -1.5006   -4.2089   -4.1985  -10.3414    0.7854    1.3893   -0.2765   -3.2547    1.1788    0.9508
   -2.3802   -0.9511   -0.5733   -1.2888    0.7825   -0.8771   -3.5436    0.9679   -0.1559   -2.8843
    1.0150    0.3611    0.6934   -0.3547    0.0550   -3.5951   -0.0505    2.1404  199.4081
    6.2379   -2.1437   -0.3934   -1.1180    7.1317    9.6368   -2.1949   -0.7493   -0.8560    2.6552
   -3.0417    0.2938   -1.6262   -5.6965    2.9173    0.7508    5.8727    6.3161    2.6162   25.6481
    5.5408   -6.2120 -130.7344 -152.7869    1.7392  -25.3071  -25.7138   -1.3594   13.8353   48.1438
  -11.9087   14.9080   13.6778   11.9537   10.1609   -3.8587    0.1017   -3.8133   -3.3472    3.5836
   13.3255    7.7489    2.8152   -8.6947   21.8944   -0.8548   -7.4711   -1.7121    4.5672  277.1787
   11.7616   -4.8365    3.6782    1.1412    4.1041   13.1476   -4.8248    7.4884    4.7057    0.3052
    1.1926    7.8539   -2.3243   -8.8169   -7.1549   -1.5422    0.5212   18.6673    5.4758    2.3877
  -40.4360  -16.7031 -148.7945 -296.7571    6.4481  -26.4345    9.9546   -6.7177    3.0148   38.0045
  -20.6154    7.7485   10.9251   19.2783   17.8172   -1.7638    0.7149   -3.8626   -1.7581    5.0043
   21.0095   12.9184    4.6109   13.8298   19.1329   -4.4519    8.8921   29.6626    6.6684  126.3840
  405.6301
   -3.7679    1.3406    0.3622   -2.9464   -0.2829    0.4304   -0.6249   -1.1263    0.7867    0.0211
   -0.7839   -0.5264   -0.1205   -2.0196    0.1577   -1.2382    2.1594   -1.3228   -2.5922   -2.5866
    1.4257    0.0909   -0.8131    0.6004   -4.8402    4.5103  -10.6665    2.2394   -0.8409    0.1162
   -2.7789    0.5738    1.1766   -3.4934   -0.5471    0.0918   -2.4482    0.8476    0.4006   -3.4120
    0.2696    0.6657   -4.4447   -0.5891    4.6662    0.1579   -0.3137   -0.2008   -1.2787    0.0061
   -1.1717  199.0331
    5.7461    4.1844  -11.8562    0.2946    8.4844   -3.5039    3.2276    0.3435   -1.2801   -1.1110
    0.6770    0.2733   -0.0830   30.2021    8.2905    1.7405   12.7541  -14.6339   -4.1485   12.3348
  -30.2104    6.4104  -30.9030   30.1789    3.0468 -114.0848  145.4857    1.4827   29.4826   -9.3143
    4.4154    3.3431   -4.5065   -1.6360    0.5179  -10.8021   -3.6137   -8.9223  -10.2058   -8.8715
   10.4107   -1.1230   -2.1147   -6.1518   -0.9906    3.5125   -4.7362  -15.8373    0.0548    3.7579
    5.8635   -2.6778  261.1025
  -12.8777  -12.2634   14.3149   -3.8831   -0.5560    9.7602   -5.8316   -0.1083    0.3584    5.7474
    0.7264   -3.3253    0.0584  -47.6997   -6.8059   -0.8746   -7.2996   20.1631    5.2180  -11.0344
   15.8102   -7.0440   33.8867    6.9272   -4.6567  155.1575 -306.5252   -6.6062   -2.3625  -31.2469
   -7.2380   -3.4733   18.6220   -1.2231   -5.5545    9.9287   12.7025   12.7262   13.1039   18.9857
  -17.7962    3.1744    8.0789  -23.2285   36.9098   -4.9351  -24.2459   13.5738    0.7285   -6.9309
  -11.0826    4.8380 -111.3566  410.7493
   -5.1166   -1.1799    9.4020  -11.3963   -1.7103    4.0266    5.0521   -4.5228    3.6298    7.5257
    3.7975   -3.5408    0.4283    3.3518   -8.1462    2.0525   -3.6460   12.1757    4.7590    3.0742
   -0.4443    0.2802    1.4097   12.0633    1.1230   -3.1217   -0.5945    6.0708   -8.2169    4.7100
   -5.7803   -5.8459    3.6299 -241.9044  105.5823  -63.8101   95.3818  -19.5310  -33.8786  -36.3307
    7.2603    3.0897    2.0222   -1.2068    6.5398   -2.0943    2.0676   -2.9827    0.7391    1.6763
    1.6414    0.7466    0.2531    2.5849  366.9164
    0.1076   -3.1269   -2.1283   -0.8017   -3.6274   -1.9906   -1.3615   -2.4848   -0.9423   -3.3286
   -4.2042   -1.6003   -0.4452   -1.7921    4.1733   -1.3676   -0.8662   -5.8147   -1.7768   -1.0432
    1.3877   -0.7173   -3.4070   -2.4642   -1.8624    1.0295   -1.3983    2.7568    4.8158    1.6258
  -15.8305   14.3775   -6.9621   87.8070  -78.7285   24.2852  -22.3710   -0.7186   17.7002   12.3854
   -8.4802   -2.7243   -2.1237   -2.0921   -1.7087    0.2448    1.3789    0.2527   -0.4772   -3.7701
   -3.1098   -0.8838   -1.1588   -1.0323  -62.0105  219.1881
   -1.4912    1.0274    1.1120   -7.1106   -2.0134   -0.0001    4.0312   -5.0759    0.8915    3.4514
   -1.3903   -3.9549    1.3338    3.5059   -2.8163    1.8204   -1.5640    6.0096    2.4295    1.7230
    1.9905    1.3282   -2.5900    3.6324    2.2246   -1.1027   -1.2007   -0.9247   -4.2112    2.2493
   16.8793  -11.0387   19.7377 -104.2148   49.6757  -71.1453   36.6548   -7.3871  -32.3360  -28.2772
    5.6780    0.4840    2.2841   -0.5232    2.3860    0.4660    3.2155   -1.1650    0.4430    2.1805
    5.2757    0.5138   -0.4293    1.7921   74.6557  -29.1367  235.5854
   -6.1134    0.2036    0.3705   -5.0619    3.1436    2.3168    2.7482    1.8173    0.9476    3.3263
    5.2379   -1.2178    0.5019   -1.7201   -2.2990   -0.9550   -1.5205    2.6129   -0.4656   -1.9095
   -1.7291   -0.8867    4.2423    1.6131   -1.4905    2.3278    1.9795    0.5388    8.1580   -3.7865
    6.6918  -30.8589    5.5776  -33.2874  -10.2662    1.8054    6.3825    2.1093   -7.8104   -9.9269
    5.1433   -1.3663   -2.0961    4.6643   -4.4757   -1.0490    0.1029   -0.2772   -0.0089   -1.9183
   -0.6902   -0.1850   -2.6107    1.8827   16.0524   -1.7627    6.9860  201.7357
   -4.8854    6.3058    6.9274  -26.1257   -1.8098   -2.5385   20.0912   -4.6329    9.8384    3.4715
    7.8465   -3.1256    3.0060    1.5269   -4.3968   -2.6008  -10.3257    1.8608    4.1732    2.2525
    8.4135   -0.2739   19.2231    2.2761   -3.1410    9.8255   -8.0213   31.7935   19.5668   -5.8025
  -14.2171  -28.8261   11.0481    9.8660 -347.8605   21.8590   17.6760  -22.6278    1.9788  -35.9348
   -8.1262    1.8789   -6.6257    0.2766    3.3503   -0.4878   28.1644  -18.5932    1.1157   -4.5973
   -4.0646    1.1326   -7.5980    8.3151  -32.2645   29.5746  -19.2138   20.9021  450.4019
   -0.0213    1.7548   -1.5529    0.3888    1.9366   -1.9621    3.1315    1.4965    1.5162   -0.4968
    1.5164    1.6312    0.0285   -0.7798    0.4594    0.4024    1.8887    0.4609   -0.3765    1.9161
    0.7000    0.4092   -3.4464   -3.1743    0.5860   -1.2005   -5.1300   -2.7799   -5.0438    0.6046
    2.5596   19.4379    7.4849   -0.1962   11.8113  -39.2350    2.8521   -3.9124  -11.6879   -8.8469
   -1.3579   -2.4804    0.9737   -2.2842   -1.2545    0.6742   -0.8524   -2.5504    0.2266    1.7027
    2.1056    0.6034    0.2424    0.4912    3.9740   -2.9727    3.9216   -1.6844  -17.2914  201.7424
   -4.3139    1.1979   -1.0270   -4.7132   -3.2329    0.6642    1.0316   -4.0719    0.0983    1.2397
   -1.9594   -2.7830   -0.0526   -2.0662   -0.2840   -0.7986   -0.1661    1.5922   -1.3376   -0.3903
    4.1130   -0.4636    0.5714    2.9131   -2.2382   -2.1920   -0.5249   -0.3100    2.8066   -2.0869
    4.7424    7.0814   28.1284  -32.0561    2.1907   -8.8432    8.2111   -1.7102   -9.0656   -7.4063
   -1.4250  -11.9596   -1.9190    2.3653    0.1207   -0.5352    3.1545    0.7459   -0.7286   -1.1908
   -0.5500   -0.6127   -0.1875    1.1368   17.3955   -6.1317    7.1412    1.7646    3.3724    0.3692
  201.8552
[...]
 100.80691 101.63018 101.74446


              NET ATOMIC CHARGES AND DIPOLE CONTRIBUTIONS

  ATOM NO.   TYPE          CHARGE      No. of ELECS.   s-Pop       p-Pop       d-Pop       
    1         Fe           0.812255        7.1877     0.45562     0.45100     6.28113
    2          O          -0.630324        6.6303     1.77825     4.85208
    3          H           0.385942        0.6141     0.61406
    4          H           0.385793        0.6142     0.61421
    5          C           0.108937        3.8911     1.31692     2.57415
    6          N          -0.266307        5.2663     1.51905     3.74725
    7          C           0.114625        3.8854     1.03484     2.85053
    8          C          -0.161553        4.1616     1.08681     3.07475
    9          C          -0.150632        4.1506     1.08841     3.06223
   10          C           0.047421        3.9526     1.09864     2.85394
   11          C           0.104803        3.8952     1.05080     2.84440
   12          C          -0.459030        4.4590     1.05941     3.39962
   13          C          -0.458107        4.4581     1.05934     3.39876
   14          C          -0.462766        4.4628     1.05905     3.40371
   15          C          -0.160386        4.1604     1.08858     3.07181
   16          C          -0.150325        4.1503     1.08739     3.06293
   17          H           0.168206        0.8318     0.83179
   18          H           0.181808        0.8182     0.81819
   19          H           0.150407        0.8496     0.84959
   20          H           0.168337        0.8317     0.83166
   21          H           0.146167        0.8538     0.85383
   22          H           0.152091        0.8479     0.84791
   23          H           0.146463        0.8535     0.85354
   24          H           0.168151        0.8318     0.83185
   25          H           0.151734        0.8483     0.84827
   26          H           0.168469        0.8315     0.83153
   27          H           0.150669        0.8493     0.84933
   28          H           0.187558        0.8124     0.81244
   29          H           0.168763        0.8312     0.83124
   30          C           0.088692        3.9113     1.31940     2.59191
   31          N          -0.264665        5.2647     1.51865     3.74601
   32          C           0.113825        3.8862     1.03517     2.85100
   33          C          -0.155611        4.1556     1.08518     3.07043
   34          C          -0.153918        4.1539     1.08889     3.06503
   35          C           0.048755        3.9512     1.09928     2.85197
   36          C           0.105727        3.8943     1.05085     2.84342
   37          C          -0.457742        4.4577     1.05934     3.39841
   38          C          -0.458863        4.4589     1.05929     3.39958
   39          C          -0.463284        4.4633     1.05912     3.40417
   40          C          -0.154853        4.1549     1.08850     3.06635
   41          C          -0.155149        4.1551     1.08689     3.06826
   42          H           0.164879        0.8351     0.83512
   43          H           0.181980        0.8180     0.81802
   44          H           0.153112        0.8469     0.84689
   45          H           0.168957        0.8310     0.83104
   46          H           0.146771        0.8532     0.85323
   47          H           0.150905        0.8491     0.84909
   48          H           0.146223        0.8538     0.85378
   49          H           0.168907        0.8311     0.83109
   50          H           0.149616        0.8504     0.85038
   51          H           0.169400        0.8306     0.83060
   52          H           0.151318        0.8487     0.84868
   53          H           0.187101        0.8129     0.81290
   54          H           0.166406        0.8336     0.83359
   55          C           0.087557        3.9124     1.32205     2.59039
   56          N          -0.261991        5.2620     1.51914     3.74286
   57          C           0.114423        3.8856     1.03597     2.84960
   58          C          -0.160535        4.1605     1.08642     3.07412
   59          C          -0.151020        4.1510     1.08891     3.06211
   60          C           0.048430        3.9516     1.09848     2.85309
   61          C           0.106676        3.8933     1.05070     2.84262
   62          C          -0.458747        4.4587     1.05930     3.39944
   63          C          -0.458314        4.4583     1.05939     3.39892
   64          C          -0.464562        4.4646     1.05913     3.40543
   65          C          -0.158051        4.1581     1.08828     3.06978
   66          C          -0.155758        4.1558     1.08651     3.06925
   67          H           0.168235        0.8318     0.83177
   68          H           0.184667        0.8153     0.81533
   69          H           0.154655        0.8453     0.84535
   70          H           0.168661        0.8313     0.83134
   71          H           0.147698        0.8523     0.85230
   72          H           0.148329        0.8517     0.85167
   73          H           0.147096        0.8529     0.85290
   74          H           0.167857        0.8321     0.83214
   75          H           0.147700        0.8523     0.85230
   76          H           0.169275        0.8307     0.83073
   77          H           0.152965        0.8470     0.84704
   78          H           0.186764        0.8132     0.81324
   79          H           0.165380        0.8346     0.83462
   80          C           0.092821        3.9072     1.31922     2.58795
   81          N          -0.259200        5.2592     1.51898     3.74022
   82          C           0.110513        3.8895     1.03514     2.85434
   83          C          -0.162315        4.1623     1.08835     3.07397
   84          C          -0.159214        4.1592     1.08836     3.07086
   85          C           0.052166        3.9478     1.09877     2.84906
   86          C           0.105866        3.8941     1.05080     2.84333
   87          C          -0.458713        4.4587     1.05943     3.39928
   88          C          -0.458935        4.4589     1.05930     3.39964
   89          C          -0.462767        4.4628     1.05905     3.40372
   90          C          -0.157988        4.1580     1.08856     3.06943
   91          C          -0.148938        4.1489     1.08663     3.06231
   92          H           0.172479        0.8275     0.82752
   93          H           0.180383        0.8196     0.81962
   94          H           0.152468        0.8475     0.84753
   95          H           0.168099        0.8319     0.83190
   96          H           0.145278        0.8547     0.85472
   97          H           0.151808        0.8482     0.84819
   98          H           0.145217        0.8548     0.85478
   99          H           0.168594        0.8314     0.83141
  100          H           0.151427        0.8486     0.84857
  101          H           0.168749        0.8313     0.83125
  102          H           0.151769        0.8482     0.84823
  103          H           0.188514        0.8115     0.81149
  104          H           0.167242        0.8328     0.83276
  105          C          -0.107297        4.1073     1.07758     3.02972
  106          C          -0.073759        4.0738     1.03524     3.03852
  107          P          -0.246280        5.2463     1.63137     3.45412     0.16079
  108          C          -0.071093        4.0711     1.03759     3.03351
  109          C          -0.111489        4.1115     1.07758     3.03391
  110          C          -0.165625        4.1656     1.08781     3.07781
  111          C          -0.088169        4.0882     1.09221     2.99596
  112          C          -0.156250        4.1562     1.08878     3.06747
  113          C          -0.090069        4.0901     1.08463     3.00544
  114          C          -0.083956        4.0840     1.03842     3.04554
  115          C          -0.108492        4.1085     1.07972     3.02877
  116          C          -0.159195        4.1592     1.08788     3.07132
  117          C          -0.092820        4.0928     1.09217     3.00065
  118          C          -0.159334        4.1593     1.08825     3.07109
  119          C          -0.097666        4.0977     1.08178     3.01589
  120          C          -0.073525        4.0735     1.08399     2.98953
  121          C          -0.156642        4.1566     1.08879     3.06786
  122          C          -0.074559        4.0746     1.09272     2.98184
  123          C          -0.171907        4.1719     1.08630     3.08560
  124          H           0.141339        0.8587     0.85866
  125          H           0.147479        0.8525     0.85252
  126          H           0.172367        0.8276     0.82763
  127          H           0.177073        0.8229     0.82293
  128          H           0.177900        0.8221     0.82210
  129          H           0.167593        0.8324     0.83241
  130          H           0.159133        0.8409     0.84087
  131          H           0.172374        0.8276     0.82763
  132          H           0.174199        0.8258     0.82580
  133          H           0.174922        0.8251     0.82508
  134          H           0.164335        0.8357     0.83567
  135          H           0.164921        0.8351     0.83508
  136          H           0.180104        0.8199     0.81990
  137          H           0.176513        0.8235     0.82349
  138          H           0.167512        0.8325     0.83249
 DIPOLE           X         Y         Z       TOTAL
 POINT-CHG.     0.386    -1.268     1.994     2.394
 HYBRID         0.080    -0.127     1.594     1.601
 SUM            0.466    -1.394     3.588     3.877


          ATOMIC ORBITAL ELECTRON POPULATIONS

     Atom    s        px        py        pz      x^2-y^2     xz        z^2       yz        xy
    1 Fe   0.45562   0.17242   0.17290   0.10567   0.67664   1.69502   0.59923   1.70246   1.60778
    2  O   1.77825   1.41619   1.75647   1.67941
    3  H   0.61406
    4  H   0.61421
    5  C   1.31692   0.80559   0.99907   0.76949
    6  N   1.51905   1.30845   1.10549   1.33332
    7  C   1.03484   1.12765   0.71685   1.00603
    8  C   1.08681   1.01177   1.03126   1.03172
    9  C   1.08841   0.99246   0.98512   1.08464
   10  C   1.09864   0.87647   1.01820   0.95926
   11  C   1.05080   0.96860   0.89732   0.97847
   12  C   1.05941   1.08194   1.18433   1.13335
   13  C   1.05934   1.07212   1.18335   1.14329
   14  C   1.05905   1.17644   1.16612   1.06115
   15  C   1.08858   0.99815   0.99283   1.08083
   16  C   1.08739   0.99938   1.02114   1.04241
   17  H   0.83179
   18  H   0.81819
   19  H   0.84959
   20  H   0.83166
   21  H   0.85383
   22  H   0.84791
   23  H   0.85354
   24  H   0.83185
   25  H   0.84827
   26  H   0.83153
   27  H   0.84933
   28  H   0.81244
   29  H   0.83124
   30  C   1.31940   1.00027   0.78281   0.80882
   31  N   1.51865   1.10590   1.32852   1.31160
   32  C   1.03517   0.71656   1.01061   1.12383
   33  C   1.08518   1.02699   1.03235   1.01109
   34  C   1.08889   0.98817   1.08189   0.99496
   35  C   1.09928   1.01923   0.95707   0.87567
   36  C   1.05085   0.89473   0.97862   0.97007
   37  C   1.05934   1.18197   1.12947   1.08696
   38  C   1.05929   1.18408   1.14870   1.06680
   39  C   1.05912   1.17058   1.05813   1.17546
   40  C   1.08850   0.98860   1.08170   0.99604
   41  C   1.08689   1.02582   1.03551   1.00693
   42  H   0.83512
   43  H   0.81802
   44  H   0.84689
   45  H   0.83104
   46  H   0.85323
   47  H   0.84909
   48  H   0.85378
   49  H   0.83109
   50  H   0.85038
   51  H   0.83060
   52  H   0.84868
   53  H   0.81290
   54  H   0.83359
   55  C   1.32205   0.78234   1.00425   0.80380
   56  N   1.51914   1.32723   1.10628   1.30934
   57  C   1.03597   1.00931   0.71945   1.12085
   58  C   1.08642   1.03519   1.02832   1.01060
   59  C   1.08891   1.08287   0.98770   0.99155
   60  C   1.09848   0.95818   1.01719   0.87772
   61  C   1.05070   0.97798   0.89590   0.96874
   62  C   1.05930   1.13214   1.17535   1.09195
   63  C   1.05939   1.14689   1.18903   1.06301
   64  C   1.05913   1.05809   1.17109   1.17626
   65  C   1.08828   1.08452   0.98747   0.99779
   66  C   1.08651   1.03551   1.02725   1.00649
   67  H   0.83177
   68  H   0.81533
   69  H   0.84535
   70  H   0.83134
   71  H   0.85230
   72  H   0.85167
   73  H   0.85290
   74  H   0.83214
   75  H   0.85230
   76  H   0.83073
   77  H   0.84704
   78  H   0.81324
   79  H   0.83462
   80  C   1.31922   1.00273   0.80829   0.77693
   81  N   1.51898   1.10579   1.30792   1.32652
   82  C   1.03514   0.71867   1.12902   1.00665
   83  C   1.08835   1.03595   1.00676   1.03126
   84  C   1.08836   0.98460   0.99776   1.08850
   85  C   1.09877   1.01728   0.87370   0.95808
   86  C   1.05080   0.89666   0.96821   0.97847
   87  C   1.05943   1.18626   1.06871   1.14431
   88  C   1.05930   1.18429   1.08669   1.12865
   89  C   1.05905   1.16178   1.17672   1.06522
   90  C   1.08856   0.99523   0.99727   1.07693
   91  C   1.08663   1.01804   1.00138   1.04289
   92  H   0.82752
   93  H   0.81962
   94  H   0.84753
   95  H   0.83190
   96  H   0.85472
   97  H   0.84819
   98  H   0.85478
   99  H   0.83141
  100  H   0.84857
  101  H   0.83125
  102  H   0.84823
  103  H   0.81149
  104  H   0.83276
  105  C   1.07758   0.98094   0.97705   1.07172
  106  C   1.03524   1.00532   1.03719   0.99601
  107  P   1.63137   1.08120   1.06637   1.30655   0.02789   0.03986   0.02363   0.03628   0.03313
  108  C   1.03759   0.96823   1.03769   1.02758
  109  C   1.07758   0.99314   0.98370   1.05708
  110  C   1.08781   1.00785   1.05952   1.01044
  111  C   1.09221   1.03051   0.97879   0.98666
  112  C   1.08878   0.99493   1.00723   1.06531
  113  C   1.08463   0.99652   1.04203   0.96689
  114  C   1.03842   1.01287   0.94089   1.09178
  115  C   1.07972   1.05301   0.98997   0.98579
  116  C   1.08788   1.06095   1.01671   0.99366
  117  C   1.09217   0.97881   1.07306   0.94878
  118  C   1.08825   1.07968   0.99214   0.99926
  119  C   1.08178   1.02981   1.02199   0.96409
  120  C   1.08399   0.99759   1.01708   0.97487
  121  C   1.08879   0.98739   0.98973   1.09074
  122  C   1.09272   0.99448   0.98460   1.00275
  123  C   1.08630   1.02522   1.04279   1.01759
  124  H   0.85866
  125  H   0.85252
  126  H   0.82763
  127  H   0.82293
  128  H   0.82210
  129  H   0.83241
  130  H   0.84087
  131  H   0.82763
  132  H   0.82580
  133  H   0.82508
  134  H   0.83567
  135  H   0.83508
  136  H   0.81990
  137  H   0.82349
  138  H   0.83249


                    (SZ)    =    0.000000
                    (S**2)  =    0.000000


          ATOMIC ORBITAL SPIN POPULATIONS

    Atom   Total    s     px     py     pz   x^2-y^2  xz     z^2    yz     xy
         Atomic
    1 Fe -0.0000 -0.000 -0.000  0.000  0.000  0.000 -0.000  0.000 -0.000 -0.000
    2  O -0.0000  0.000  0.000 -0.000  0.000
    3  H  0.0000  0.000
    4  H -0.0000 -0.000
    5  C  0.0000  0.000  0.000  0.000  0.000
    6  N -0.0001 -0.000 -0.000 -0.000 -0.000
    7  C  0.0000  0.000  0.000  0.000  0.000
    8  C -0.0000  0.000 -0.000 -0.000 -0.000
    9  C -0.0000 -0.000 -0.000 -0.000 -0.000
   10  C -0.0000 -0.000 -0.000 -0.000 -0.000
   11  C  0.0000 -0.000  0.000  0.000 -0.000
   12  C  0.0000 -0.000 -0.000  0.000  0.000
   13  C -0.0000 -0.000 -0.000 -0.000 -0.000
   14  C -0.0000 -0.000 -0.000  0.000 -0.000
   15  C  0.0000  0.000 -0.000 -0.000  0.000
   16  C -0.0000  0.000  0.000 -0.000 -0.000
   17  H -0.0000 -0.000
   18  H  0.0000  0.000
   19  H -0.0000 -0.000
   20  H  0.0000  0.000
   21  H -0.0000 -0.000
   22  H  0.0000  0.000
   23  H  0.0000  0.000
   24  H  0.0000  0.000
   25  H -0.0000 -0.000
   26  H -0.0000 -0.000
   27  H  0.0000  0.000
   28  H -0.0000 -0.000
   29  H -0.0000 -0.000
   30  C -0.0000  0.000 -0.000 -0.000 -0.000
   31  N -0.0000 -0.000  0.000  0.000 -0.000
   32  C -0.0000 -0.000  0.000 -0.000 -0.000
   33  C -0.0000  0.000  0.000 -0.000 -0.000
   34  C -0.0000 -0.000 -0.000 -0.000 -0.000
   35  C  0.0000 -0.000  0.000  0.000  0.000
   36  C  0.0000  0.000  0.000  0.000  0.000
   37  C -0.0000  0.000 -0.000 -0.000  0.000
   38  C -0.0000 -0.000 -0.000  0.000 -0.000
   39  C -0.0000 -0.000 -0.000  0.000 -0.000
   40  C -0.0000 -0.000  0.000 -0.000 -0.000
   41  C  0.0000 -0.000  0.000  0.000  0.000
   42  H -0.0000 -0.000
   43  H  0.0000  0.000
   44  H  0.0000  0.000
   45  H  0.0000  0.000
   46  H  0.0000  0.000
   47  H  0.0000  0.000
   48  H -0.0000 -0.000
   49  H  0.0000  0.000
   50  H  0.0000  0.000
   51  H  0.0000  0.000
   52  H  0.0000  0.000
   53  H -0.0000 -0.000
   54  H -0.0000 -0.000
   55  C -0.0001 -0.000 -0.000 -0.000 -0.000
   56  N  0.0001  0.000  0.000  0.000  0.000
   57  C -0.0000 -0.000 -0.000  0.000 -0.000
   58  C  0.0000 -0.000  0.000  0.000  0.000
   59  C -0.0000 -0.000 -0.000 -0.000 -0.000
   60  C  0.0000  0.000  0.000 -0.000  0.000
   61  C -0.0000 -0.000 -0.000 -0.000 -0.000
   62  C  0.0000 -0.000  0.000 -0.000  0.000
   63  C  0.0000 -0.000  0.000  0.000  0.000
   64  C  0.0000 -0.000 -0.000  0.000  0.000
   65  C -0.0000  0.000  0.000 -0.000 -0.000
   66  C  0.0000  0.000  0.000  0.000  0.000
   67  H  0.0000  0.000
   68  H  0.0000  0.000
   69  H -0.0000 -0.000
   70  H -0.0000 -0.000
   71  H  0.0000  0.000
   72  H -0.0000 -0.000
   73  H -0.0000 -0.000
   74  H  0.0000  0.000
   75  H  0.0000  0.000
   76  H -0.0000 -0.000
   77  H -0.0000 -0.000
   78  H  0.0000  0.000
   79  H -0.0000 -0.000
   80  C -0.0000 -0.000 -0.000 -0.000 -0.000
   81  N  0.0000  0.000  0.000  0.000  0.000
   82  C -0.0000  0.000  0.000 -0.000 -0.000
   83  C -0.0000 -0.000  0.000 -0.000 -0.000
   84  C  0.0000 -0.000 -0.000  0.000 -0.000
   85  C -0.0000  0.000 -0.000 -0.000  0.000
   86  C  0.0000  0.000  0.000  0.000  0.000
   87  C  0.0000  0.000  0.000 -0.000 -0.000
   88  C  0.0000 -0.000  0.000  0.000 -0.000
   89  C -0.0000  0.000 -0.000 -0.000 -0.000
   90  C  0.0000  0.000  0.000  0.000 -0.000
   91  C -0.0000  0.000 -0.000 -0.000  0.000
   92  H  0.0000  0.000
   93  H  0.0000  0.000
   94  H -0.0000 -0.000
   95  H -0.0000 -0.000
   96  H -0.0000 -0.000
   97  H  0.0000  0.000
   98  H  0.0000  0.000
   99  H -0.0000 -0.000
  100  H  0.0000  0.000
  101  H  0.0000  0.000
  102  H  0.0000  0.000
  103  H -0.0000 -0.000
  104  H -0.0000 -0.000
  105  C -0.0000  0.000 -0.000 -0.000 -0.000
  106  C  0.0000  0.000  0.000  0.000  0.000
  107  P  0.0000  0.000  0.000 -0.000  0.000 -0.000  0.000 -0.000  0.000  0.000
  108  C  0.0000  0.000  0.000  0.000  0.000
  109  C -0.0000 -0.000 -0.000 -0.000 -0.000
  110  C  0.0000 -0.000  0.000  0.000 -0.000
  111  C -0.0000 -0.000 -0.000 -0.000 -0.000
  112  C  0.0000 -0.000  0.000  0.000 -0.000
  113  C -0.0000 -0.000 -0.000 -0.000 -0.000
  114  C -0.0000 -0.000 -0.000 -0.000 -0.000
  115  C  0.0000 -0.000  0.000  0.000  0.000
  116  C -0.0000 -0.000 -0.000 -0.000 -0.000
  117  C  0.0000  0.000  0.000  0.000  0.000
  118  C -0.0000 -0.000 -0.000 -0.000 -0.000
  119  C  0.0000  0.000  0.000  0.000  0.000
  120  C -0.0001 -0.000 -0.000 -0.000 -0.000
  121  C  0.0000  0.000  0.000  0.000  0.000
  122  C -0.0000 -0.000  0.000 -0.000 -0.000
  123  C  0.0000  0.000  0.000  0.000 -0.000
  124  H  0.0000  0.000
  125  H  0.0000  0.000
  126  H  0.0000  0.000
  127  H  0.0000  0.000
  128  H  0.0000  0.000
  129  H -0.0000 -0.000
  130  H  0.0000  0.000
  131  H  0.0000  0.000
  132  H -0.0000 -0.000
  133  H  0.0000  0.000
  134  H -0.0000 -0.000
  135  H  0.0000  0.000
  136  H -0.0000 -0.000
  137  H  0.0000  0.000
  138  H -0.0000 -0.000

 **********************
 *                    *
 * JOB ENDED NORMALLY *
 *                    *
 **********************



 TOTAL JOB TIME:           127.18 SECONDS

 == MOPAC DONE ==
