 *******************************************************************************
 ** Site#: 26130        For non-commercial use only     Version 16.299L 64BITS**
 *******************************************************************************
 ** Cite this program as: MOPAC2016, Version: 16.299L, James J. P. Stewart,   **
 ** Stewart Computational Chemistry, web: HTTP://OpenMOPAC.net. Days left: 350**
 *******************************************************************************
 **                                                                           **
 **                                MOPAC2016                                  **
 **                                                                           **
 *******************************************************************************

                              PM7 CALCULATION RESULTS


 *******************************************************************************
 *  CALCULATION DONE:                                Thu Nov 10 15:58:00 2016  *
 *  PM7        - The PM7 Hamiltonian to be used
 *  QUINTET    - SPIN STATE DEFINED AS A QUINTET
 *  UHF        - UNRESTRICTED HARTREE-FOCK CALCULATION
 *
 *
 *
 *                 CHARGE ON SYSTEM =    +2
 *
 *
 *
 *  XYZ        - CARTESIAN COORDINATE SYSTEM TO BE USED
 *  EF         - USE EF ROUTINE FOR MINIMUM SEARCH
 *  T=         - A TIME OF 172800.0 SECONDS REQUESTED
 *  DUMP=N     - RESTART FILE WRITTEN EVERY  7200.000 SECONDS
 *  HESSIAN    - WRITE OUT HESSIAN FROM GEOMERY OPTIMIZATION
 *******************************************************************************
 EF PM7 XYZ HESSIAN QUINTET UHF CHARGE=2
 1005_F_8_5

   ATOM   CHEMICAL          X               Y               Z
  NUMBER   SYMBOL      (ANGSTROMS)     (ANGSTROMS)     (ANGSTROMS)
 
     1      Fe          0.00000000  *   0.00000000  *   0.00000000  *
     2       O          0.00000000  *   0.00000000  *   2.12000000  *
     3       H          0.78254700  *   0.02732700  *   2.72619800  *
     4       H         -0.78254700  *  -0.02732700  *   2.72618400  *
     5       C          0.00000000  *   2.03000000  *   0.00014500  *
     6       N          0.00000000  *   3.18756700  *   0.00014500  *
     7       C          0.00005400  *   4.56962600  *   0.00027100  *
     8       C         -0.05394500  *   5.26944700  *  -1.20622000  *
     9       C         -0.05364700  *   6.66628700  *  -1.21000900  *
    10       C          0.00087500  *   7.39593400  *   0.00014900  *
    11       C          0.00017300  *   8.94037900  *  -0.03837000  *
    12       C          1.22702500  *   9.43482900  *  -0.83491300  *
    13       C         -1.29278300  *   9.43672700  *  -0.72138200  *
    14       C          0.06392800  *   9.58442200  *   1.36770900  *
    15       C          0.05502000  *   6.66736800  *   1.21391300  *
    16       C          0.05423800  *   5.26899500  *   1.20710100  *
    17       H         -0.09609800  *   4.73077100  *  -2.14503600  *
    18       H         -0.09623000  *   7.17747500  *  -2.16199700  *
    19       H          2.16683000  *   9.08969700  *  -0.35175100  *
    20       H          1.24597600  *  10.54546700  *  -0.88032100  *
    21       H          1.21691800  *   9.06112500  *  -1.87970900  *
    22       H         -2.18575200  *   9.09295500  *  -0.15571800  *
    23       H         -1.37719500  *   9.06295500  *  -1.76284300  *
    24       H         -1.31393300  *  10.54737000  *  -0.76506300  *
    25       H         -0.81550600  *   9.28996300  *   1.98033900  *
    26       H          0.06153000  *  10.69384700  *   1.29346200  *
    27       H          0.99458800  *   9.28854300  *   1.89873100  *
    28       H          0.09813400  *   7.16215900  *   2.17185400  *
    29       H          0.09618800  *   4.72926700  *   2.14514800  *
    30       C          2.03000000  *   0.00014500  *   0.00000700  *
    31       N          3.18756700  *   0.00014500  *   0.00000700  *
    32       C          4.56962600  *   0.00026800  *   0.00006800  *
    33       C          5.26944700  *  -1.20180300  *  -0.11638600  *
    34       C          6.66628700  *  -1.20560300  *  -0.11628400  *
    35       C          7.39593400  *   0.00010300  *   0.00088200  *
    36       C          8.94037900  *  -0.03832700  *  -0.00181600  *
    37       C          9.43482900  *  -0.89738200  *   1.18210600  *
    38       C          9.43672700  *  -0.65341400  *  -1.32843200  *
    39       C          9.58442200  *   1.36255800  *   0.13472400  *
    40       C          6.66736800  *   1.20943000  *   0.11785800  *
    41       C          5.26899500  *   1.20266800  *   0.11672400  *
    42       H          4.73077100  *  -2.13717300  *  -0.20713700  *
    43       H          7.17747500  *  -2.15410400  *  -0.20814800  *
    44       H          9.08969700  *  -0.46357500  *   2.14568900  *
    45       H         10.54546700  *  -0.94371100  *   1.19867800  *
    46       H          9.06112500  *  -1.94025000  *   1.11786600  *
    47       H          9.09295500  *  -0.04223100  *  -2.19088500  *
    48       H          9.06295500  *  -1.68910000  *  -1.46670400  *
    49       H         10.54737000  *  -0.69594000  *  -1.35181700  *
    50       H          9.28996300  *   2.01994100  *  -0.71177800  *
    51       H         10.69384700  *   1.28853500  *   0.12848200  *
    52       H          9.28854300  *   1.84463400  *   1.09165400  *
    53       H          7.16215900  *   2.16384900  *   0.21056000  *
    54       H          4.72926700  *   2.13728100  *   0.20723300  *
    55       C          0.00014500  *  -2.03000000  *   0.00000500  *
    56       N          0.00014500  *  -3.18756700  *   0.00000500  *
    57       C          0.00026900  *  -4.56962600  *   0.00006300  *
    58       C         -1.20372200  *  -5.26944700  *  -0.09449900  *
    59       C         -1.20751900  *  -6.66628700  *  -0.09432800  *
    60       C          0.00011900  *  -7.39593400  *   0.00088000  *
    61       C         -0.03835400  *  -8.94037900  *  -0.00111900  *
    62       C         -0.87572500  *  -9.43482900  *   1.19823800  *
    63       C         -0.67747700  *  -9.43672700  *  -1.31632300  *
    64       C          1.36478300  *  -9.58442200  *   0.10990900  *
    65       C          1.21137400  *  -6.66736800  *   0.09583200  *
    66       C          1.20459300  *  -5.26899500  *   0.09482100  *
    67       H         -2.14058800  *  -4.73077100  *  -0.16821600  *
    68       H         -2.15753500  *  -7.17747500  *  -0.16891900  *
    69       H         -0.42445700  *  -9.08969700  *   2.15376800  *
    70       H         -0.92174500  * -10.54546700  *   1.21565100  *
    71       H         -1.91958900  *  -9.06112500  *   1.15298400  *
    72       H         -0.08208800  *  -9.09295500  *  -2.18975400  *
    73       H         -1.71550700  *  -9.06295500  *  -1.43572800  *
    74       H         -0.72042100  * -10.54737000  *  -1.33893100  *
    75       H          2.00665600  *  -9.28996300  *  -0.74841400  *
    76       H          1.29065900  * -10.69384700  *   0.10501500  *
    77       H          1.86419200  *  -9.28854300  *   1.05791000  *
    78       H          2.16732200  *  -7.16215900  *   0.17115300  *
    79       H          2.14069700  *  -4.72926700  *   0.16831000  *
    80       C         -2.03000000  *  -0.00001100  *   0.00014500  *
    81       N         -3.18756700  *  -0.00001100  *   0.00014500  *
    82       C         -4.56962600  *   0.00003500  *   0.00027400  *
    83       C         -5.26944700  *   0.03245100  *  -1.20699000  *
    84       C         -6.66628700  *   0.03302000  *  -1.21074800  *
    85       C         -7.39593400  *   0.00086200  *   0.00021100  *
    86       C         -8.94037900  *   0.00291600  *  -0.03825900  *
    87       C         -9.43482900  *   1.28358900  *  -0.74502900  *
    88       C         -9.43672700  *  -1.23788700  *  -0.81198400  *
    89       C         -9.58442200  *  -0.03404200  *   1.36877900  *
    90       C         -6.66736800  *  -0.03192900  *   1.21473900  *
    91       C         -5.26899500  *  -0.03222200  *   1.20789000  *
    92       H         -4.73077100  *   0.05754200  *  -2.14641600  *
    93       H         -7.17747500  *   0.05862300  *  -2.16334300  *
    94       H         -9.08969700  *   2.18643700  *  -0.19589800  *
    95       H        -10.54546700  *   1.30573900  *  -0.78896600  *
    96       H         -9.06112500  *   1.34822300  *  -1.78787300  *
    97       H         -9.09295500  *  -2.16902100  *  -0.31162500  *
    98       H         -9.06295500  *  -1.24760600  *  -1.85681400  *
    99       H        -10.54737000  *  -1.25585900  *  -0.85706500  *
   100       H         -9.28996300  *  -0.95503500  *   1.91695100  *
   101       H        -10.69384700  *  -0.03112400  *   1.29455000  *
   102       H         -9.28854300  *   0.85626100  *   1.96499400  *
   103       H         -7.16215900  *  -0.05742900  *   2.17331100  *
   104       H         -4.72926700  *  -0.05746000  *   2.14653500  *
   105       C          2.14495400  *   1.77607700  *  -2.38990400  *
   106       C          1.27282500  *   0.99542000  *  -3.16406400  *
   107       P          0.00095600  *   0.00137500  *  -2.30999400  *
   108       C         -1.49832000  *   0.68831400  *  -3.09786800  *
   109       C         -2.09324300  *   1.80621600  *  -2.48317600  *
   110       C         -3.22712800  *   2.41618200  *  -3.02655300  *
   111       C         -3.79103900  *   1.91707200  *  -4.19578600  *
   112       C         -3.21671500  *   0.81419800  *  -4.82237900  *
   113       C         -2.07648100  *   0.20892800  *  -4.28126400  *
   114       C          0.22836200  *  -1.67961000  *  -2.98121900  *
   115       C         -0.83318200  *  -2.60056700  *  -2.99031800  *
   116       C         -0.65813100  *  -3.90481000  *  -3.46430900  *
   117       C          0.59003300  *  -4.32414200  *  -3.91432500  *
   118       C          1.66591700  *  -3.44456400  *  -3.87518000  *
   119       C          1.48809100  *  -2.14129800  *  -3.40118900  *
   120       C          1.42408000  *   1.01383900  *  -4.55920800  *
   121       C          2.42742000  *   1.77782000  *  -5.16107900  *
   122       C          3.28690500  *   2.54257800  *  -4.37688400  *
   123       C          3.14390600  *   2.54479700  *  -2.99147600  *
   124       H          2.05436000  *   1.79337200  *  -1.30491000  *
   125       H         -1.66837600  *   2.22460800  *  -1.57223500  *
   126       H         -3.66237800  *   3.28374000  *  -2.53759600  *
   127       H         -4.67143000  *   2.39074000  *  -4.62163600  *
   128       H         -3.65044000  *   0.42636700  *  -5.74054900  *
   129       H         -1.64508700  *  -0.63428800  *  -4.81383000  *
   130       H         -1.81660900  *  -2.31115000  *  -2.62311000  *
   131       H         -1.49774200  *  -4.59501400  *  -3.47229200  *
   132       H          0.72854200  *  -5.33827100  *  -4.27897100  *
   133       H          2.65035100  *  -3.76977200  *  -4.20320300  *
   134       H          2.36227400  *  -1.49474900  *  -3.35855100  *
   135       H          0.77006400  *   0.42306200  *  -5.19532200  *
   136       H          2.53521800  *   1.77304600  *  -6.24226400  *
   137       H          4.06628400  *   3.13750100  *  -4.84497700  *
   138       H          3.81106000  *   3.14407500  *  -2.37657100  *
 


          CARTESIAN COORDINATES 

    NO.       ATOM         X         Y         Z

     1        Fe        0.0000    0.0000    0.0000
     2         O        0.0000    0.0000    2.1200
     3         H        0.7825    0.0273    2.7262
     4         H       -0.7825   -0.0273    2.7262
     5         C        0.0000    2.0300    0.0001
     6         N        0.0000    3.1876    0.0001
     7         C        0.0001    4.5696    0.0003
     8         C       -0.0539    5.2694   -1.2062
     9         C       -0.0536    6.6663   -1.2100
    10         C        0.0009    7.3959    0.0001
    11         C        0.0002    8.9404   -0.0384
    12         C        1.2270    9.4348   -0.8349
    13         C       -1.2928    9.4367   -0.7214
    14         C        0.0639    9.5844    1.3677
    15         C        0.0550    6.6674    1.2139
    16         C        0.0542    5.2690    1.2071
    17         H       -0.0961    4.7308   -2.1450
    18         H       -0.0962    7.1775   -2.1620
    19         H        2.1668    9.0897   -0.3518
    20         H        1.2460   10.5455   -0.8803
    21         H        1.2169    9.0611   -1.8797
    22         H       -2.1858    9.0930   -0.1557
    23         H       -1.3772    9.0630   -1.7628
    24         H       -1.3139   10.5474   -0.7651
    25         H       -0.8155    9.2900    1.9803
    26         H        0.0615   10.6938    1.2935
    27         H        0.9946    9.2885    1.8987
    28         H        0.0981    7.1622    2.1719
    29         H        0.0962    4.7293    2.1451
    30         C        2.0300    0.0001    0.0000
    31         N        3.1876    0.0001    0.0000
    32         C        4.5696    0.0003    0.0001
    33         C        5.2694   -1.2018   -0.1164
    34         C        6.6663   -1.2056   -0.1163
    35         C        7.3959    0.0001    0.0009
    36         C        8.9404   -0.0383   -0.0018
    37         C        9.4348   -0.8974    1.1821
    38         C        9.4367   -0.6534   -1.3284
    39         C        9.5844    1.3626    0.1347
    40         C        6.6674    1.2094    0.1179
    41         C        5.2690    1.2027    0.1167
    42         H        4.7308   -2.1372   -0.2071
    43         H        7.1775   -2.1541   -0.2081
    44         H        9.0897   -0.4636    2.1457
    45         H       10.5455   -0.9437    1.1987
    46         H        9.0611   -1.9403    1.1179
    47         H        9.0930   -0.0422   -2.1909
    48         H        9.0630   -1.6891   -1.4667
    49         H       10.5474   -0.6959   -1.3518
    50         H        9.2900    2.0199   -0.7118
    51         H       10.6938    1.2885    0.1285
    52         H        9.2885    1.8446    1.0917
    53         H        7.1622    2.1638    0.2106
    54         H        4.7293    2.1373    0.2072
    55         C        0.0001   -2.0300    0.0000
    56         N        0.0001   -3.1876    0.0000
    57         C        0.0003   -4.5696    0.0001
    58         C       -1.2037   -5.2694   -0.0945
    59         C       -1.2075   -6.6663   -0.0943
    60         C        0.0001   -7.3959    0.0009
    61         C       -0.0384   -8.9404   -0.0011
    62         C       -0.8757   -9.4348    1.1982
    63         C       -0.6775   -9.4367   -1.3163
    64         C        1.3648   -9.5844    0.1099
    65         C        1.2114   -6.6674    0.0958
    66         C        1.2046   -5.2690    0.0948
    67         H       -2.1406   -4.7308   -0.1682
    68         H       -2.1575   -7.1775   -0.1689
    69         H       -0.4245   -9.0897    2.1538
    70         H       -0.9217  -10.5455    1.2157
    71         H       -1.9196   -9.0611    1.1530
    72         H       -0.0821   -9.0930   -2.1898
    73         H       -1.7155   -9.0630   -1.4357
    74         H       -0.7204  -10.5474   -1.3389
    75         H        2.0067   -9.2900   -0.7484
    76         H        1.2907  -10.6938    0.1050
    77         H        1.8642   -9.2885    1.0579
    78         H        2.1673   -7.1622    0.1712
    79         H        2.1407   -4.7293    0.1683
    80         C       -2.0300   -0.0000    0.0001
    81         N       -3.1876   -0.0000    0.0001
    82         C       -4.5696    0.0000    0.0003
    83         C       -5.2694    0.0325   -1.2070
    84         C       -6.6663    0.0330   -1.2107
    85         C       -7.3959    0.0009    0.0002
    86         C       -8.9404    0.0029   -0.0383
    87         C       -9.4348    1.2836   -0.7450
    88         C       -9.4367   -1.2379   -0.8120
    89         C       -9.5844   -0.0340    1.3688
    90         C       -6.6674   -0.0319    1.2147
    91         C       -5.2690   -0.0322    1.2079
    92         H       -4.7308    0.0575   -2.1464
    93         H       -7.1775    0.0586   -2.1633
    94         H       -9.0897    2.1864   -0.1959
    95         H      -10.5455    1.3057   -0.7890
    96         H       -9.0611    1.3482   -1.7879
    97         H       -9.0930   -2.1690   -0.3116
    98         H       -9.0630   -1.2476   -1.8568
    99         H      -10.5474   -1.2559   -0.8571
   100         H       -9.2900   -0.9550    1.9170
   101         H      -10.6938   -0.0311    1.2946
   102         H       -9.2885    0.8563    1.9650
   103         H       -7.1622   -0.0574    2.1733
   104         H       -4.7293   -0.0575    2.1465
   105         C        2.1450    1.7761   -2.3899
   106         C        1.2728    0.9954   -3.1641
   107         P        0.0010    0.0014   -2.3100
   108         C       -1.4983    0.6883   -3.0979
   109         C       -2.0932    1.8062   -2.4832
   110         C       -3.2271    2.4162   -3.0266
   111         C       -3.7910    1.9171   -4.1958
   112         C       -3.2167    0.8142   -4.8224
   113         C       -2.0765    0.2089   -4.2813
   114         C        0.2284   -1.6796   -2.9812
   115         C       -0.8332   -2.6006   -2.9903
   116         C       -0.6581   -3.9048   -3.4643
   117         C        0.5900   -4.3241   -3.9143
   118         C        1.6659   -3.4446   -3.8752
   119         C        1.4881   -2.1413   -3.4012
   120         C        1.4241    1.0138   -4.5592
   121         C        2.4274    1.7778   -5.1611
   122         C        3.2869    2.5426   -4.3769
   123         C        3.1439    2.5448   -2.9915
   124         H        2.0544    1.7934   -1.3049
   125         H       -1.6684    2.2246   -1.5722
   126         H       -3.6624    3.2837   -2.5376
   127         H       -4.6714    2.3907   -4.6216
   128         H       -3.6504    0.4264   -5.7405
   129         H       -1.6451   -0.6343   -4.8138
   130         H       -1.8166   -2.3112   -2.6231
   131         H       -1.4977   -4.5950   -3.4723
   132         H        0.7285   -5.3383   -4.2790
   133         H        2.6504   -3.7698   -4.2032
   134         H        2.3623   -1.4947   -3.3586
   135         H        0.7701    0.4231   -5.1953
   136         H        2.5352    1.7730   -6.2423
   137         H        4.0663    3.1375   -4.8450
   138         H        3.8111    3.1441   -2.3766

 General Reference for PM7:
 "Optimization of Parameters for Semiempirical Methods VI: More Modifications to the 
 NDDO Approximations and Re-optimization of Parameters", J. J. P. Stewart, J. Mol. Mod., 1:32, 19 (2013)
 http://www.springerlink.com/openurl.asp?genre=article&id=doi:10.1007/s00894-012-1667-x

           Empirical Formula: C62 H69 N4 O Fe P  =   138 atoms



      MOLECULAR POINT GROUP   :   C1  


 QUINTET STATE CALCULATION


          UHF CALCULATION, NO. OF ALPHA ELECTRONS =  179
                           NO. OF BETA  ELECTRONS =  175

          Geometry optimization using EF

          DIAGONAL MATRIX USED AS START HESSIAN

 CYCLE:     1 TIME:   3.168 TIME LEFT:  2.00D  GRAD.:   364.520 HEAT:  403.7930
 CYCLE:     2 TIME:   0.531 TIME LEFT:  2.00D  GRAD.:   334.449 HEAT:  388.7530
 CYCLE:     3 TIME:   0.859 TIME LEFT:  2.00D  GRAD.:   149.303 HEAT:  374.8193
 CYCLE:     4 TIME:   0.777 TIME LEFT:  2.00D  GRAD.:   146.662 HEAT:  372.7602
 CYCLE:     5 TIME:   0.348 TIME LEFT:  2.00D  GRAD.:   127.459 HEAT:  370.6479
 CYCLE:     6 TIME:   0.348 TIME LEFT:  2.00D  GRAD.:   140.247 HEAT:  369.8675
 CYCLE:     7 TIME:   0.359 TIME LEFT:  2.00D  GRAD.:    81.028 HEAT:  367.9016
 CYCLE:     8 TIME:   0.367 TIME LEFT:  2.00D  GRAD.:    98.130 HEAT:  367.2105
 CYCLE:     9 TIME:   0.379 TIME LEFT:  2.00D  GRAD.:   135.029 HEAT:  367.2053
 CYCLE:    10 TIME:   0.801 TIME LEFT:  2.00D  GRAD.:    59.821 HEAT:  365.1587
 CYCLE:    11 TIME:   0.785 TIME LEFT:  2.00D  GRAD.:    33.708 HEAT:  364.6884
 CYCLE:    12 TIME:   0.391 TIME LEFT:  2.00D  GRAD.:    32.317 HEAT:  364.2655
 CYCLE:    13 TIME:   0.402 TIME LEFT:  2.00D  GRAD.:    77.889 HEAT:  364.2558
 CYCLE:    14 TIME:   0.402 TIME LEFT:  2.00D  GRAD.:    31.162 HEAT:  363.3685
 CYCLE:    15 TIME:   1.164 TIME LEFT:  2.00D  GRAD.:    32.153 HEAT:  363.1801
 CYCLE:    16 TIME:   0.406 TIME LEFT:  2.00D  GRAD.:    18.680 HEAT:  362.8792
 CYCLE:    17 TIME:   0.410 TIME LEFT:  2.00D  GRAD.:    26.629 HEAT:  362.4561
 CYCLE:    18 TIME:   0.406 TIME LEFT:  2.00D  GRAD.:    22.303 HEAT:  361.7620
 CYCLE:    19 TIME:   0.406 TIME LEFT:  2.00D  GRAD.:    57.390 HEAT:  360.9602
 CYCLE:    20 TIME:   0.445 TIME LEFT:  2.00D  GRAD.:    67.353 HEAT:  359.6991
 CYCLE:    21 TIME:   0.789 TIME LEFT:  2.00D  GRAD.:    92.254 HEAT:  359.4450
 CYCLE:    22 TIME:   0.426 TIME LEFT:  2.00D  GRAD.:    64.739 HEAT:  357.9805
 CYCLE:    23 TIME:   1.020 TIME LEFT:  2.00D  GRAD.:    40.918 HEAT:  357.3212
 CYCLE:    24 TIME:   1.133 TIME LEFT:  2.00D  GRAD.:    37.002 HEAT:  357.0947
 CYCLE:    25 TIME:   0.324 TIME LEFT:  2.00D  GRAD.:    44.908 HEAT:  356.8039
 CYCLE:    26 TIME:   0.309 TIME LEFT:  2.00D  GRAD.:    35.282 HEAT:  356.4833
 CYCLE:    27 TIME:   0.586 TIME LEFT:  2.00D  GRAD.:    43.113 HEAT:  356.3831
 CYCLE:    28 TIME:   0.332 TIME LEFT:  2.00D  GRAD.:    16.794 HEAT:  356.0016
 CYCLE:    29 TIME:   0.301 TIME LEFT:  2.00D  GRAD.:    38.360 HEAT:  355.8801
 CYCLE:    30 TIME:   0.309 TIME LEFT:  2.00D  GRAD.:    14.531 HEAT:  355.3987
 CYCLE:    31 TIME:   0.312 TIME LEFT:  2.00D  GRAD.:    58.747 HEAT:  355.3778
 CYCLE:    32 TIME:   0.301 TIME LEFT:  2.00D  GRAD.:    21.634 HEAT:  354.3067
 CYCLE:    33 TIME:   1.148 TIME LEFT:  2.00D  GRAD.:    15.976 HEAT:  354.1911
 CYCLE:    34 TIME:   0.277 TIME LEFT:  2.00D  GRAD.:    13.675 HEAT:  354.0297
 CYCLE:    35 TIME:   0.281 TIME LEFT:  2.00D  GRAD.:    17.395 HEAT:  353.8229
 CYCLE:    36 TIME:   0.348 TIME LEFT:  2.00D  GRAD.:    13.122 HEAT:  353.5085
 CYCLE:    37 TIME:   0.383 TIME LEFT:  2.00D  GRAD.:    35.649 HEAT:  353.0969
 CYCLE:    38 TIME:   0.355 TIME LEFT:  2.00D  GRAD.:    31.860 HEAT:  352.2993
 CYCLE:    39 TIME:   0.449 TIME LEFT:  2.00D  GRAD.:    69.623 HEAT:  352.1539
 CYCLE:    40 TIME:   0.414 TIME LEFT:  2.00D  GRAD.:    51.601 HEAT:  350.9854
 CYCLE:    41 TIME:   1.141 TIME LEFT:  2.00D  GRAD.:    55.285 HEAT:  350.8409
 CYCLE:    42 TIME:   0.805 TIME LEFT:  2.00D  GRAD.:    25.795 HEAT:  350.3475
 CYCLE:    43 TIME:   0.797 TIME LEFT:  2.00D  GRAD.:    21.124 HEAT:  350.2127
 CYCLE:    44 TIME:   0.402 TIME LEFT:  2.00D  GRAD.:    12.383 HEAT:  350.1001
 CYCLE:    45 TIME:   0.402 TIME LEFT:  2.00D  GRAD.:    28.707 HEAT:  350.0671
 CYCLE:    46 TIME:   0.398 TIME LEFT:  2.00D  GRAD.:     9.752 HEAT:  349.8636
 CYCLE:    47 TIME:   0.699 TIME LEFT:  2.00D  GRAD.:    17.995 HEAT:  349.8422
 CYCLE:    48 TIME:   0.359 TIME LEFT:  2.00D  GRAD.:     8.908 HEAT:  349.7176
 CYCLE:    49 TIME:   0.746 TIME LEFT:  2.00D  GRAD.:    20.318 HEAT:  349.7138
 CYCLE:    50 TIME:   0.395 TIME LEFT:  2.00D  GRAD.:     8.679 HEAT:  349.5824
 CYCLE:    51 TIME:   0.707 TIME LEFT:  2.00D  GRAD.:    10.662 HEAT:  349.5501
 CYCLE:    52 TIME:   0.355 TIME LEFT:  2.00D  GRAD.:     6.266 HEAT:  349.4817
 CYCLE:    53 TIME:   0.383 TIME LEFT:  2.00D  GRAD.:    13.172 HEAT:  349.4141
 CYCLE:    54 TIME:   0.398 TIME LEFT:  2.00D  GRAD.:     9.889 HEAT:  349.2572
 CYCLE:    55 TIME:   0.750 TIME LEFT:  2.00D  GRAD.:    19.441 HEAT:  349.2512
 CYCLE:    56 TIME:   0.414 TIME LEFT:  2.00D  GRAD.:    14.308 HEAT:  349.1147
 CYCLE:    57 TIME:   1.035 TIME LEFT:  2.00D  GRAD.:     6.657 HEAT:  349.0673
 CYCLE:    58 TIME:   0.383 TIME LEFT:  2.00D  GRAD.:     5.235 HEAT:  349.0343
 CYCLE:    59 TIME:   0.387 TIME LEFT:  2.00D  GRAD.:     7.082 HEAT:  348.9933
 CYCLE:    60 TIME:   0.391 TIME LEFT:  2.00D  GRAD.:     6.166 HEAT:  348.9331
 CYCLE:    61 TIME:   0.398 TIME LEFT:  2.00D  GRAD.:    11.881 HEAT:  348.8688
 CYCLE:    62 TIME:   0.398 TIME LEFT:  2.00D  GRAD.:    11.092 HEAT:  348.7622
 CYCLE:    63 TIME:   0.402 TIME LEFT:  2.00D  GRAD.:    30.440 HEAT:  348.7528
 CYCLE:    64 TIME:   0.402 TIME LEFT:  2.00D  GRAD.:    23.373 HEAT:  348.5898
 CYCLE:    65 TIME:   1.105 TIME LEFT:  2.00D  GRAD.:    20.784 HEAT:  348.5384
 CYCLE:    66 TIME:   0.363 TIME LEFT:  2.00D  GRAD.:     9.271 HEAT:  348.4477
 CYCLE:    67 TIME:   0.664 TIME LEFT:  2.00D  GRAD.:    11.515 HEAT:  348.4292
 CYCLE:    68 TIME:   0.395 TIME LEFT:  2.00D  GRAD.:    10.207 HEAT:  348.3981
 CYCLE:    69 TIME:   0.352 TIME LEFT:  2.00D  GRAD.:    12.922 HEAT:  348.3833
 CYCLE:    70 TIME:   0.316 TIME LEFT:  2.00D  GRAD.:    13.696 HEAT:  348.3658
 CYCLE:    71 TIME:   0.309 TIME LEFT:  2.00D  GRAD.:    14.147 HEAT:  348.3492
 CYCLE:    72 TIME:   0.301 TIME LEFT:  2.00D  GRAD.:    13.458 HEAT:  348.3245
 CYCLE:    73 TIME:   0.320 TIME LEFT:  2.00D  GRAD.:     9.986 HEAT:  348.2926
 CYCLE:    74 TIME:   0.598 TIME LEFT:  2.00D  GRAD.:     7.055 HEAT:  348.2753
 CYCLE:    75 TIME:   0.309 TIME LEFT:  2.00D  GRAD.:     6.104 HEAT:  348.2626
 CYCLE:    76 TIME:   0.305 TIME LEFT:  2.00D  GRAD.:     9.155 HEAT:  348.2526
 CYCLE:    77 TIME:   0.305 TIME LEFT:  2.00D  GRAD.:     5.108 HEAT:  348.2277
 CYCLE:    78 TIME:   0.309 TIME LEFT:  2.00D  GRAD.:     6.976 HEAT:  348.2086
 CYCLE:    79 TIME:   0.309 TIME LEFT:  2.00D  GRAD.:     7.862 HEAT:  348.1766
 CYCLE:    80 TIME:   0.301 TIME LEFT:  2.00D  GRAD.:    12.166 HEAT:  348.1519
 CYCLE:    81 TIME:   0.324 TIME LEFT:  2.00D  GRAD.:    10.928 HEAT:  348.1028
 CYCLE:    82 TIME:   0.848 TIME LEFT:  2.00D  GRAD.:    10.342 HEAT:  348.0942
 CYCLE:    83 TIME:   0.340 TIME LEFT:  2.00D  GRAD.:    11.530 HEAT:  348.0868
 CYCLE:    84 TIME:   0.293 TIME LEFT:  2.00D  GRAD.:    12.396 HEAT:  348.0775
 CYCLE:    85 TIME:   0.309 TIME LEFT:  2.00D  GRAD.:     9.178 HEAT:  348.0609
 CYCLE:    86 TIME:   0.305 TIME LEFT:  2.00D  GRAD.:    13.210 HEAT:  348.0578
 CYCLE:    87 TIME:   0.324 TIME LEFT:  2.00D  GRAD.:     6.855 HEAT:  348.0326
 CYCLE:    88 TIME:   0.594 TIME LEFT:  2.00D  GRAD.:     7.763 HEAT:  348.0291
 CYCLE:    89 TIME:   0.316 TIME LEFT:  2.00D  GRAD.:     5.170 HEAT:  348.0149
 CYCLE:    90 TIME:   0.312 TIME LEFT:  2.00D  GRAD.:     5.621 HEAT:  348.0059
 CYCLE:    91 TIME:   0.305 TIME LEFT:  2.00D  GRAD.:     5.162 HEAT:  347.9913
 CYCLE:    92 TIME:   0.301 TIME LEFT:  2.00D  GRAD.:     9.005 HEAT:  347.9890
 CYCLE:    93 TIME:   0.301 TIME LEFT:  2.00D  GRAD.:     5.928 HEAT:  347.9622
 CYCLE:    94 TIME:   0.574 TIME LEFT:  2.00D  GRAD.:     6.809 HEAT:  347.9607
 CYCLE:    95 TIME:   0.285 TIME LEFT:  2.00D  GRAD.:     6.212 HEAT:  347.9446
 CYCLE:    96 TIME:   0.590 TIME LEFT:  2.00D  GRAD.:     5.790 HEAT:  347.9402
 CYCLE:    97 TIME:   0.348 TIME LEFT:  2.00D  GRAD.:     3.509 HEAT:  347.9285
 CYCLE:    98 TIME:   0.684 TIME LEFT:  2.00D  GRAD.:     4.506 HEAT:  347.9256
 CYCLE:    99 TIME:   0.355 TIME LEFT:  2.00D  GRAD.:     1.999 HEAT:  347.9177
 CYCLE:   100 TIME:   0.434 TIME LEFT:  2.00D  GRAD.:     8.216 HEAT:  347.8425
 CYCLE:   101 TIME:   0.723 TIME LEFT:  2.00D  GRAD.:    14.540 HEAT:  347.8278
 CYCLE:   102 TIME:   1.414 TIME LEFT:  2.00D  GRAD.:     7.441 HEAT:  347.7995
 CYCLE:   103 TIME:   0.383 TIME LEFT:  2.00D  GRAD.:    10.342 HEAT:  347.7963
 CYCLE:   104 TIME:   0.395 TIME LEFT:  2.00D  GRAD.:     9.025 HEAT:  347.7901
 CYCLE:   105 TIME:   0.391 TIME LEFT:  2.00D  GRAD.:     9.091 HEAT:  347.7885
 CYCLE:   106 TIME:   0.691 TIME LEFT:  2.00D  GRAD.:     4.159 HEAT:  347.7727
 CYCLE:   107 TIME:   0.711 TIME LEFT:  2.00D  GRAD.:     2.060 HEAT:  347.7687
 CYCLE:   108 TIME:   0.473 TIME LEFT:  2.00D  GRAD.:     7.001 HEAT:  347.7548
 CYCLE:   109 TIME:   1.715 TIME LEFT:  2.00D  GRAD.:     5.622 HEAT:  347.7502
 CYCLE:   110 TIME:   0.398 TIME LEFT:  2.00D  GRAD.:     3.145 HEAT:  347.7405
 CYCLE:   111 TIME:   0.656 TIME LEFT:  2.00D  GRAD.:     3.361 HEAT:  347.7376
 CYCLE:   112 TIME:   0.391 TIME LEFT:  2.00D  GRAD.:     7.496 HEAT:  347.7307
 CYCLE:   113 TIME:   0.750 TIME LEFT:  2.00D  GRAD.:     7.894 HEAT:  347.7152
 CYCLE:   114 TIME:   1.336 TIME LEFT:  2.00D  GRAD.:     4.067 HEAT:  347.7007
 CYCLE:   115 TIME:   0.695 TIME LEFT:  2.00D  GRAD.:     2.400 HEAT:  347.6943
 CYCLE:   116 TIME:   0.391 TIME LEFT:  2.00D  GRAD.:     3.414 HEAT:  347.6920
 CYCLE:   117 TIME:   0.449 TIME LEFT:  2.00D  GRAD.:     7.340 HEAT:  347.6793
 CYCLE:   118 TIME:   0.664 TIME LEFT:  2.00D  GRAD.:     9.412 HEAT:  347.6748
 CYCLE:   119 TIME:   0.699 TIME LEFT:  2.00D  GRAD.:     9.740 HEAT:  347.6682
 CYCLE:   120 TIME:   0.695 TIME LEFT:  2.00D  GRAD.:     7.263 HEAT:  347.6559
 CYCLE:   121 TIME:   0.355 TIME LEFT:  2.00D  GRAD.:     7.505 HEAT:  347.6531
 CYCLE:   122 TIME:   0.727 TIME LEFT:  2.00D  GRAD.:     2.774 HEAT:  347.6399
 CYCLE:   123 TIME:   0.703 TIME LEFT:  2.00D  GRAD.:     1.847 HEAT:  347.6376
 CYCLE:   124 TIME:   0.527 TIME LEFT:  2.00D  GRAD.:     2.546 HEAT:  347.6263
 CYCLE:   125 TIME:   1.223 TIME LEFT:  2.00D  GRAD.:     4.970 HEAT:  347.6253
 CYCLE:   126 TIME:   0.379 TIME LEFT:  2.00D  GRAD.:     4.948 HEAT:  347.6167
 CYCLE:   127 TIME:   1.023 TIME LEFT:  2.00D  GRAD.:     4.494 HEAT:  347.6119
 CYCLE:   128 TIME:   0.672 TIME LEFT:  2.00D  GRAD.:     2.116 HEAT:  347.6057
 CYCLE:   129 TIME:   0.469 TIME LEFT:  2.00D  GRAD.:     7.640 HEAT:  347.6144
 CYCLE:   130 TIME:   0.402 TIME LEFT:  2.00D  GRAD.:     6.762 HEAT:  347.6048
 CYCLE:   131 TIME:   1.414 TIME LEFT:  2.00D  GRAD.:     2.564 HEAT:  347.5914
 CYCLE:   132 TIME:   0.395 TIME LEFT:  2.00D  GRAD.:     5.860 HEAT:  347.5970
 CYCLE:   133 TIME:   0.398 TIME LEFT:  2.00D  GRAD.:     3.479 HEAT:  347.5840
 CYCLE:   134 TIME:   1.844 TIME LEFT:  2.00D  GRAD.:     3.775 HEAT:  347.5808
 CYCLE:   135 TIME:   0.387 TIME LEFT:  2.00D  GRAD.:     2.818 HEAT:  347.5759
 CYCLE:   136 TIME:   0.391 TIME LEFT:  2.00D  GRAD.:     4.735 HEAT:  347.5713
 CYCLE:   137 TIME:   0.387 TIME LEFT:  2.00D  GRAD.:     5.792 HEAT:  347.5656
 CYCLE:   138 TIME:   0.699 TIME LEFT:  2.00D  GRAD.:     5.383 HEAT:  347.5619
 CYCLE:   139 TIME:   0.707 TIME LEFT:  2.00D  GRAD.:     4.622 HEAT:  347.5574
 CYCLE:   140 TIME:   0.395 TIME LEFT:  2.00D  GRAD.:     4.590 HEAT:  347.5546
 CYCLE:   141 TIME:   0.398 TIME LEFT:  2.00D  GRAD.:     3.366 HEAT:  347.5489
 CYCLE:   142 TIME:   0.402 TIME LEFT:  2.00D  GRAD.:     4.225 HEAT:  347.5493
 CYCLE:   143 TIME:   0.391 TIME LEFT:  2.00D  GRAD.:     3.854 HEAT:  347.5386
 CYCLE:   144 TIME:   1.039 TIME LEFT:  2.00D  GRAD.:     2.377 HEAT:  347.5326
 CYCLE:   145 TIME:   0.387 TIME LEFT:  2.00D  GRAD.:     2.723 HEAT:  347.5312
 CYCLE:   146 TIME:   0.398 TIME LEFT:  2.00D  GRAD.:     3.933 HEAT:  347.5227
 CYCLE:   147 TIME:   0.398 TIME LEFT:  2.00D  GRAD.:     4.104 HEAT:  347.5202
 CYCLE:   148 TIME:   0.391 TIME LEFT:  2.00D  GRAD.:     3.700 HEAT:  347.5163
 CYCLE:   149 TIME:   0.395 TIME LEFT:  2.00D  GRAD.:     5.632 HEAT:  347.5135
 CYCLE:   150 TIME:   0.395 TIME LEFT:  2.00D  GRAD.:     5.806 HEAT:  347.5083
 CYCLE:   151 TIME:   0.707 TIME LEFT:  2.00D  GRAD.:     5.513 HEAT:  347.5082
 CYCLE:   152 TIME:   0.359 TIME LEFT:  2.00D  GRAD.:     4.495 HEAT:  347.5019
 CYCLE:   153 TIME:   0.379 TIME LEFT:  2.00D  GRAD.:     4.528 HEAT:  347.4988
 CYCLE:   154 TIME:   0.383 TIME LEFT:  2.00D  GRAD.:     4.359 HEAT:  347.4966
 CYCLE:   155 TIME:   0.391 TIME LEFT:  2.00D  GRAD.:     4.082 HEAT:  347.4936
 CYCLE:   156 TIME:   0.395 TIME LEFT:  2.00D  GRAD.:     3.972 HEAT:  347.4904
 CYCLE:   157 TIME:   0.695 TIME LEFT:  2.00D  GRAD.:     1.992 HEAT:  347.4854
 CYCLE:   158 TIME:   0.516 TIME LEFT:  2.00D  GRAD.:     4.774 HEAT:  347.4755
 CYCLE:   159 TIME:   0.398 TIME LEFT:  2.00D  GRAD.:     6.709 HEAT:  347.4666
 CYCLE:   160 TIME:   0.684 TIME LEFT:  2.00D  GRAD.:     7.002 HEAT:  347.4625
 CYCLE:   161 TIME:   1.004 TIME LEFT:  2.00D  GRAD.:     4.119 HEAT:  347.4512
 CYCLE:   162 TIME:   0.715 TIME LEFT:  2.00D  GRAD.:     2.037 HEAT:  347.4454
 CYCLE:   163 TIME:   0.469 TIME LEFT:  2.00D  GRAD.:     4.720 HEAT:  347.4395
 CYCLE:   164 TIME:   0.379 TIME LEFT:  2.00D  GRAD.:     6.145 HEAT:  347.4283
 CYCLE:   165 TIME:   0.316 TIME LEFT:  2.00D  GRAD.:     5.099 HEAT:  347.4270
 CYCLE:   166 TIME:   0.281 TIME LEFT:  2.00D  GRAD.:     5.685 HEAT:  347.4215
 CYCLE:   167 TIME:   0.984 TIME LEFT:  2.00D  GRAD.:     3.243 HEAT:  347.4113
 CYCLE:   168 TIME:   0.680 TIME LEFT:  2.00D  GRAD.:     1.561 HEAT:  347.4069
 CYCLE:   169 TIME:   0.508 TIME LEFT:  2.00D  GRAD.:     5.558 HEAT:  347.4046
 CYCLE:   170 TIME:   0.387 TIME LEFT:  2.00D  GRAD.:     4.675 HEAT:  347.3939
 CYCLE:   171 TIME:   0.988 TIME LEFT:  2.00D  GRAD.:     4.731 HEAT:  347.3914
 CYCLE:   172 TIME:   0.293 TIME LEFT:  2.00D  GRAD.:     4.440 HEAT:  347.3887
 CYCLE:   173 TIME:   0.320 TIME LEFT:  2.00D  GRAD.:     4.548 HEAT:  347.3874
 CYCLE:   174 TIME:   0.312 TIME LEFT:  2.00D  GRAD.:     3.510 HEAT:  347.3818
 CYCLE:   175 TIME:   0.582 TIME LEFT:  2.00D  GRAD.:     2.093 HEAT:  347.3780
 CYCLE:   176 TIME:   0.344 TIME LEFT:  2.00D  GRAD.:     5.304 HEAT:  347.3736
 CYCLE:   177 TIME:   0.309 TIME LEFT:  2.00D  GRAD.:     5.462 HEAT:  347.3620
 CYCLE:   178 TIME:   0.996 TIME LEFT:  2.00D  GRAD.:     2.857 HEAT:  347.3513
 CYCLE:   179 TIME:   0.332 TIME LEFT:  2.00D  GRAD.:     4.205 HEAT:  347.3520
 CYCLE:   180 TIME:   0.336 TIME LEFT:  2.00D  GRAD.:     3.411 HEAT:  347.3398
 CYCLE:   181 TIME:   0.582 TIME LEFT:  2.00D  GRAD.:     3.321 HEAT:  347.3381
 CYCLE:   182 TIME:   0.336 TIME LEFT:  2.00D  GRAD.:     4.784 HEAT:  347.3334
 CYCLE:   183 TIME:   0.352 TIME LEFT:  2.00D  GRAD.:     3.936 HEAT:  347.3251
 CYCLE:   184 TIME:   1.012 TIME LEFT:  2.00D  GRAD.:     2.085 HEAT:  347.3198
 CYCLE:   185 TIME:   0.832 TIME LEFT:  2.00D  GRAD.:     4.604 HEAT:  347.3192
 CYCLE:   186 TIME:   0.285 TIME LEFT:  2.00D  GRAD.:     4.582 HEAT:  347.3091
 CYCLE:   187 TIME:   0.879 TIME LEFT:  2.00D  GRAD.:     2.078 HEAT:  347.3003
 CYCLE:   188 TIME:   0.359 TIME LEFT:  2.00D  GRAD.:     3.053 HEAT:  347.3003
 CYCLE:   189 TIME:   0.383 TIME LEFT:  2.00D  GRAD.:     6.223 HEAT:  347.3016
 CYCLE:   190 TIME:   0.391 TIME LEFT:  2.00D  GRAD.:     6.004 HEAT:  347.3010
 CYCLE:   191 TIME:   0.391 TIME LEFT:  2.00D  GRAD.:     5.886 HEAT:  347.2985
 CYCLE:   192 TIME:   0.684 TIME LEFT:  2.00D  GRAD.:     5.692 HEAT:  347.2981
 CYCLE:   193 TIME:   0.363 TIME LEFT:  2.00D  GRAD.:     4.303 HEAT:  347.2890
 CYCLE:   194 TIME:   0.730 TIME LEFT:  2.00D  GRAD.:     2.502 HEAT:  347.2838
 CYCLE:   195 TIME:   0.398 TIME LEFT:  2.00D  GRAD.:     3.344 HEAT:  347.2840
 CYCLE:   196 TIME:   0.402 TIME LEFT:  2.00D  GRAD.:     3.393 HEAT:  347.2755
 CYCLE:   197 TIME:   0.395 TIME LEFT:  2.00D  GRAD.:     5.952 HEAT:  347.2799
 CYCLE:   198 TIME:   0.402 TIME LEFT:  2.00D  GRAD.:     3.677 HEAT:  347.2732
 CYCLE:   199 TIME:   1.027 TIME LEFT:  2.00D  GRAD.:     3.187 HEAT:  347.2716
 CYCLE:   200 TIME:   0.387 TIME LEFT:  2.00D  GRAD.:     2.077 HEAT:  347.2677
 CYCLE:   201 TIME:   0.441 TIME LEFT:  2.00D  GRAD.:     5.002 HEAT:  347.2651
 CYCLE:   202 TIME:   0.387 TIME LEFT:  2.00D  GRAD.:     4.802 HEAT:  347.2559
 CYCLE:   203 TIME:   0.672 TIME LEFT:  2.00D  GRAD.:     5.067 HEAT:  347.2539
 CYCLE:   204 TIME:   0.707 TIME LEFT:  2.00D  GRAD.:     2.343 HEAT:  347.2465
 CYCLE:   205 TIME:   0.398 TIME LEFT:  2.00D  GRAD.:     4.107 HEAT:  347.2487
 CYCLE:   206 TIME:   0.402 TIME LEFT:  2.00D  GRAD.:     3.257 HEAT:  347.2373
 CYCLE:   207 TIME:   0.398 TIME LEFT:  2.00D  GRAD.:     4.662 HEAT:  347.2409
 CYCLE:   208 TIME:   0.391 TIME LEFT:  2.00D  GRAD.:     3.583 HEAT:  347.2366
 CYCLE:   209 TIME:   0.402 TIME LEFT:  2.00D  GRAD.:     5.694 HEAT:  347.2364
 CYCLE:   210 TIME:   0.395 TIME LEFT:  2.00D  GRAD.:     5.491 HEAT:  347.2297
 CYCLE:   211 TIME:   1.027 TIME LEFT:  2.00D  GRAD.:     3.001 HEAT:  347.2219
 CYCLE:   212 TIME:   0.387 TIME LEFT:  2.00D  GRAD.:     3.975 HEAT:  347.2235
 CYCLE:   213 TIME:   0.391 TIME LEFT:  2.00D  GRAD.:     2.815 HEAT:  347.2143
 CYCLE:   214 TIME:   0.395 TIME LEFT:  2.00D  GRAD.:     4.878 HEAT:  347.2186
 CYCLE:   215 TIME:   0.398 TIME LEFT:  2.00D  GRAD.:     2.765 HEAT:  347.2122
 CYCLE:   216 TIME:   0.406 TIME LEFT:  2.00D  GRAD.:     4.141 HEAT:  347.2097
 CYCLE:   217 TIME:   0.395 TIME LEFT:  2.00D  GRAD.:     3.608 HEAT:  347.2039
 CYCLE:   218 TIME:   0.395 TIME LEFT:  2.00D  GRAD.:     4.443 HEAT:  347.2076
 CYCLE:   219 TIME:   0.402 TIME LEFT:  2.00D  GRAD.:     3.332 HEAT:  347.2009
 CYCLE:   220 TIME:   1.035 TIME LEFT:  2.00D  GRAD.:     2.578 HEAT:  347.1985
 CYCLE:   221 TIME:   0.434 TIME LEFT:  2.00D  GRAD.:     5.591 HEAT:  347.1962
 CYCLE:   222 TIME:   0.371 TIME LEFT:  2.00D  GRAD.:     3.680 HEAT:  347.1840
 CYCLE:   223 TIME:   1.363 TIME LEFT:  2.00D  GRAD.:     1.371 HEAT:  347.1776
 CYCLE:   224 TIME:   0.488 TIME LEFT:  2.00D  GRAD.:     3.058 HEAT:  347.1753
 CYCLE:   225 TIME:   0.375 TIME LEFT:  2.00D  GRAD.:     4.678 HEAT:  347.1720
 CYCLE:   226 TIME:   0.371 TIME LEFT:  2.00D  GRAD.:     2.853 HEAT:  347.1670
 CYCLE:   227 TIME:   0.395 TIME LEFT:  2.00D  GRAD.:     3.478 HEAT:  347.1638
 CYCLE:   228 TIME:   0.383 TIME LEFT:  2.00D  GRAD.:     3.884 HEAT:  347.1611
 CYCLE:   229 TIME:   0.395 TIME LEFT:  2.00D  GRAD.:     4.231 HEAT:  347.1618
 CYCLE:   230 TIME:   0.395 TIME LEFT:  2.00D  GRAD.:     3.540 HEAT:  347.1595
 CYCLE:   231 TIME:   0.410 TIME LEFT:  2.00D  GRAD.:     3.239 HEAT:  347.1535
 CYCLE:   232 TIME:   0.398 TIME LEFT:  2.00D  GRAD.:     3.663 HEAT:  347.1530
 CYCLE:   233 TIME:   0.398 TIME LEFT:  2.00D  GRAD.:     3.285 HEAT:  347.1510
 CYCLE:   234 TIME:   0.406 TIME LEFT:  2.00D  GRAD.:     4.018 HEAT:  347.1500
 CYCLE:   235 TIME:   0.391 TIME LEFT:  2.00D  GRAD.:     3.226 HEAT:  347.1452
 CYCLE:   236 TIME:   0.383 TIME LEFT:  2.00D  GRAD.:     3.939 HEAT:  347.1457
 CYCLE:   237 TIME:   0.305 TIME LEFT:  2.00D  GRAD.:     3.489 HEAT:  347.1422
 CYCLE:   238 TIME:   0.543 TIME LEFT:  2.00D  GRAD.:     3.632 HEAT:  347.1434
 CYCLE:   239 TIME:   0.332 TIME LEFT:  2.00D  GRAD.:     3.355 HEAT:  347.1350
 CYCLE:   240 TIME:   0.875 TIME LEFT:  2.00D  GRAD.:     2.343 HEAT:  347.1310
 CYCLE:   241 TIME:   0.309 TIME LEFT:  2.00D  GRAD.:     3.425 HEAT:  347.1325
 CYCLE:   242 TIME:   0.301 TIME LEFT:  2.00D  GRAD.:     2.229 HEAT:  347.1275
 CYCLE:   243 TIME:   0.320 TIME LEFT:  2.00D  GRAD.:     2.825 HEAT:  347.1285
 CYCLE:   244 TIME:   0.289 TIME LEFT:  2.00D  GRAD.:     2.663 HEAT:  347.1255
 CYCLE:   245 TIME:   0.312 TIME LEFT:  2.00D  GRAD.:     3.707 HEAT:  347.1275
 CYCLE:   246 TIME:   0.312 TIME LEFT:  2.00D  GRAD.:     2.423 HEAT:  347.1228
 CYCLE:   247 TIME:   0.324 TIME LEFT:  2.00D  GRAD.:     3.768 HEAT:  347.1240
 CYCLE:   248 TIME:   0.305 TIME LEFT:  2.00D  GRAD.:     2.754 HEAT:  347.1194
 CYCLE:   249 TIME:   0.328 TIME LEFT:  2.00D  GRAD.:     3.722 HEAT:  347.1222
 CYCLE:   250 TIME:   0.312 TIME LEFT:  2.00D  GRAD.:     2.193 HEAT:  347.1155
 CYCLE:   251 TIME:   0.305 TIME LEFT:  2.00D  GRAD.:     3.757 HEAT:  347.1188
 CYCLE:   252 TIME:   0.297 TIME LEFT:  2.00D  GRAD.:     2.334 HEAT:  347.1131
 CYCLE:   253 TIME:   0.305 TIME LEFT:  2.00D  GRAD.:     5.060 HEAT:  347.1202
 CYCLE:   254 TIME:   0.285 TIME LEFT:  2.00D  GRAD.:     1.585 HEAT:  347.1084
 CYCLE:   255 TIME:   0.348 TIME LEFT:  2.00D  GRAD.:     4.264 HEAT:  347.1121
 CYCLE:   256 TIME:   0.281 TIME LEFT:  2.00D  GRAD.:     2.427 HEAT:  347.1037
 CYCLE:   257 TIME:   0.598 TIME LEFT:  2.00D  GRAD.:     4.591 HEAT:  347.1112
 CYCLE:   258 TIME:   0.344 TIME LEFT:  2.00D  GRAD.:     1.690 HEAT:  347.1014
 CYCLE:   259 TIME:   0.516 TIME LEFT:  2.00D  GRAD.:     3.766 HEAT:  347.1013
 CYCLE:   260 TIME:   0.398 TIME LEFT:  2.00D  GRAD.:     3.552 HEAT:  347.0952
 CYCLE:   261 TIME:   0.957 TIME LEFT:  2.00D  GRAD.:     3.130 HEAT:  347.0931
 CYCLE:   262 TIME:   0.316 TIME LEFT:  2.00D  GRAD.:     2.576 HEAT:  347.0913
 CYCLE:   263 TIME:   0.336 TIME LEFT:  2.00D  GRAD.:     2.817 HEAT:  347.0881
 CYCLE:   264 TIME:   0.285 TIME LEFT:  2.00D  GRAD.:     3.005 HEAT:  347.0877
 CYCLE:   265 TIME:   0.289 TIME LEFT:  2.00D  GRAD.:     3.520 HEAT:  347.0884
 CYCLE:   266 TIME:   0.281 TIME LEFT:  2.00D  GRAD.:     2.382 HEAT:  347.0837
 CYCLE:   267 TIME:   0.316 TIME LEFT:  2.00D  GRAD.:     3.413 HEAT:  347.0852
 CYCLE:   268 TIME:   0.398 TIME LEFT:  2.00D  GRAD.:     2.423 HEAT:  347.0821
 CYCLE:   269 TIME:   0.402 TIME LEFT:  2.00D  GRAD.:     3.109 HEAT:  347.0821
 CYCLE:   270 TIME:   0.391 TIME LEFT:  2.00D  GRAD.:     1.638 HEAT:  347.0775
 CYCLE:   271 TIME:   0.410 TIME LEFT:  2.00D  GRAD.:     4.000 HEAT:  347.0809
 CYCLE:   272 TIME:   0.391 TIME LEFT:  2.00D  GRAD.:     1.408 HEAT:  347.0752
 CYCLE:   273 TIME:   0.449 TIME LEFT:  2.00D  GRAD.:     2.448 HEAT:  347.0735
 CYCLE:   274 TIME:   0.430 TIME LEFT:  2.00D  GRAD.:     2.396 HEAT:  347.0674
 CYCLE:   275 TIME:   0.430 TIME LEFT:  2.00D  GRAD.:     3.494 HEAT:  347.0633
 CYCLE:   276 TIME:   0.367 TIME LEFT:  2.00D  GRAD.:     4.207 HEAT:  347.0614
 CYCLE:   277 TIME:   0.730 TIME LEFT:  2.00D  GRAD.:     3.185 HEAT:  347.0611
 CYCLE:   278 TIME:   0.395 TIME LEFT:  2.00D  GRAD.:     2.965 HEAT:  347.0630
 CYCLE:   279 TIME:   0.809 TIME LEFT:  2.00D  GRAD.:     2.865 HEAT:  347.0599
 CYCLE:   280 TIME:   0.402 TIME LEFT:  2.00D  GRAD.:     4.252 HEAT:  347.0580
 CYCLE:   281 TIME:   0.391 TIME LEFT:  2.00D  GRAD.:     4.747 HEAT:  347.0579
 CYCLE:   282 TIME:   0.699 TIME LEFT:  2.00D  GRAD.:     3.067 HEAT:  347.0534
 CYCLE:   283 TIME:   0.707 TIME LEFT:  2.00D  GRAD.:     4.708 HEAT:  347.0595
 CYCLE:   284 TIME:   0.391 TIME LEFT:  2.00D  GRAD.:     3.906 HEAT:  347.0550
 CYCLE:   285 TIME:   1.281 TIME LEFT:  2.00D  GRAD.:     1.838 HEAT:  347.0497
 CYCLE:   286 TIME:   0.309 TIME LEFT:  2.00D  GRAD.:     2.128 HEAT:  347.0495
 CYCLE:   287 TIME:   0.359 TIME LEFT:  2.00D  GRAD.:     1.582 HEAT:  347.0475
 CYCLE:   288 TIME:   0.332 TIME LEFT:  2.00D  GRAD.:     1.666 HEAT:  347.0468
 CYCLE:   289 TIME:   0.309 TIME LEFT:  2.00D  GRAD.:     2.330 HEAT:  347.0469
 CYCLE:   290 TIME:   0.281 TIME LEFT:  2.00D  GRAD.:     1.185 HEAT:  347.0447
 CYCLE:   291 TIME:   0.301 TIME LEFT:  2.00D  GRAD.:     1.712 HEAT:  347.0443
 CYCLE:   292 TIME:   0.312 TIME LEFT:  2.00D  GRAD.:     0.778 HEAT:  347.0418

     GRADIENT =  0.77846  IS LESS THAN CUTOFF =  1.00000



 -------------------------------------------------------------------------------
 EF PM7 XYZ HESSIAN QUINTET UHF CHARGE=2
 1005_F_8_5



     GEOMETRY OPTIMISED USING EIGENVECTOR FOLLOWING (EF).     
     SCF FIELD WAS ACHIEVED                                   


                              PM7 CALCULATION
                                                       MOPAC2016 (Version: 16.299L)
                                                       Thu Nov 10 16:00:29 2016
                                                       No. of days remaining = 350




          FINAL HEAT OF FORMATION =        347.04156 KCAL/MOL =    1452.02190 KJ/MOL


          TOTAL ENERGY            =     -10149.30938 EV
          ELECTRONIC ENERGY       =    -149572.00662 EV  POINT GROUP:     C1  
          CORE-CORE REPULSION     =     139422.69724 EV
          COSMO AREA              =        897.47 SQUARE ANGSTROMS
          COSMO VOLUME            =       1237.60 CUBIC ANGSTROMS

          GRADIENT NORM           =          0.77846
          IONIZATION POTENTIAL    =         11.457392 EV
          ALPHA SOMO LUMO (EV)    =        -11.457 -5.253
          BETA  SOMO LUMO (EV)    =        -13.314 -6.797
          NO. OF ALPHA ELECTRONS  =        179
          NO. OF BETA  ELECTRONS  =        175
          MOLECULAR WEIGHT        =        973.0741

          MOLECULAR DIMENSIONS (Angstroms)

            Atom       Atom       Distance
            H   101    H    51    21.03624
            H   101    H    51    21.02004
            H   136    H     4     8.84884


          SCF CALCULATIONS        =        409
 
          WALL-CLOCK TIME         =  2 MINUTES AND 29.453 SECONDS
          COMPUTATION TIME        =  8 MINUTES AND 15.799 SECONDS




   ATOM   CHEMICAL          X               Y               Z
  NUMBER   SYMBOL      (ANGSTROMS)     (ANGSTROMS)     (ANGSTROMS)
 
     1      Fe          0.02751387  *   0.04490277  *   0.05714924  *
     2       O         -0.07223719  *   0.11998630  *   2.17823098  *
     3       H          0.70047145  *   0.55583138  *   2.59775846  *
     4       H         -0.12169556  *  -0.75930276  *   2.60884754  *
     5       C          0.01834813  *   1.90657232  *   0.13731113  *
     6       N          0.01475852  *   3.08323251  *   0.21271727  *
     7       C          0.01949025  *   4.41934396  *   0.15939643  *
     8       C          0.00046560  *   5.08929635  *  -1.13659300  *
     9       C         -0.00217396  *   6.43614345  *  -1.17311924  *
    10       C          0.01439594  *   7.23826484  *   0.04130842  *
    11       C         -0.00403557  *   8.73062934  *  -0.08212786  *
    12       C          1.22438157  *   9.16950520  *  -0.90287902  *
    13       C         -1.29996447  *   9.13781458  *  -0.81074685  *
    14       C          0.03773683  *   9.44884906  *   1.27432077  *
    15       C          0.03925997  *   6.55999246  *   1.30726276  *
    16       C          0.04179054  *   5.20994206  *   1.39393488  *
    17       H         -0.01014432  *   4.47650932  *  -2.03362235  *
    18       H         -0.01776203  *   6.97157446  *  -2.12967702  *
    19       H          2.15723263  *   8.83224783  *  -0.43785589  *
    20       H          1.27323750  *  10.26518878  *  -0.97267593  *
    21       H          1.20379949  *   8.78727151  *  -1.92743726  *
    22       H         -2.18813995  *   8.78590270  *  -0.27360462  *
    23       H         -1.34910093  *   8.74479288  *  -1.83032038  *
    24       H         -1.37648359  *  10.23131631  *  -0.88509010  *
    25       H         -0.82960707  *   9.20342262  *   1.89721820  *
    26       H          0.02527733  *  10.54023889  *   1.13852700  *
    27       H          0.94888018  *   9.21502550  *   1.83588813  *
    28       H          0.05518376  *   7.16637445  *   2.22187001  *
    29       H          0.05497876  *   4.68163720  *   2.34061229  *
    30       C          1.88427118  *   0.01038750  *   0.08237940  *
    31       N          3.06402476  *  -0.03252455  *   0.04198213  *
    32       C          4.39109917  *  -0.03586478  *  -0.07519527  *
    33       C          5.11183087  *  -1.28787003  *  -0.28019200  *
    34       C          6.45975754  *  -1.26878131  *  -0.29303499  *
    35       C          7.21383662  *  -0.03869449  *  -0.11500391  *
    36       C          8.71024794  *  -0.10914515  *  -0.08118699  *
    37       C          9.12492582  *  -1.01283644  *   1.09623773  *
    38       C          9.20139815  *  -0.71347559  *  -1.41102091  *
    39       C          9.37356646  *   1.26339681  *   0.10270224  *
    40       C          6.48831507  *   1.19231433  *   0.01667826  *
    41       C          5.13540295  *   1.22496293  *   0.03456415  *
    42       H          4.53505895  *  -2.19631655  *  -0.42065458  *
    43       H          7.03207738  *  -2.19219876  *  -0.44267107  *
    44       H          8.75249883  *  -0.62295473  *   2.05054096  *
    45       H         10.21953377  *  -1.07137887  *   1.17405301  *
    46       H          8.75821102  *  -2.03753859  *   0.98904763  *
    47       H          8.85254575  *  -0.12931331  *  -2.26981226  *
    48       H          8.86883772  *  -1.74609788  *  -1.55149368  *
    49       H         10.29968631  *  -0.72503338  *  -1.44993932  *
    50       H          9.14307373  *   1.94595816  *  -0.72268685  *
    51       H         10.46897790  *   1.16620358  *   0.13106982  *
    52       H          9.07959402  *   1.74033622  *   1.04415537  *
    53       H          7.05804340  *   2.12627976  *   0.10198593  *
    54       H          4.57174807  *   2.14632411  *   0.12306555  *
    55       C          0.03094839  *  -1.83896944  *   0.15884097  *
    56       N          0.04357303  *  -3.00138410  *   0.23747599  *
    57       C          0.04762473  *  -4.38309350  *   0.18240278  *
    58       C         -1.17348554  *  -5.07135154  *   0.13853260  *
    59       C         -1.15395175  *  -6.45389319  *   0.02902588  *
    60       C          0.05510096  *  -7.16464497  *  -0.03150608  *
    61       C          0.01206373  *  -8.67661995  *  -0.16613257  *
    62       C         -0.80691893  *  -9.25426081  *   0.99995355  *
    63       C         -0.65728364  *  -9.01603270  *  -1.50911297  *
    64       C          1.40812778  *  -9.31362048  *  -0.13870454  *
    65       C          1.25745920  *  -6.45282708  *   0.02604872  *
    66       C          1.26840582  *  -5.06639439  *   0.13309202  *
    67       H         -2.11883618  *  -4.53288080  *   0.18681276  *
    68       H         -2.10365614  *  -6.99748908  *  -0.00890845  *
    69       H         -0.39166891  *  -8.95466822  *   1.96948097  *
    70       H         -0.80716846  * -10.35291677  *   0.97355520  *
    71       H         -1.85425273  *  -8.93808437  *   0.97449155  *
    72       H         -0.10460349  *  -8.59017782  *  -2.35324113  *
    73       H         -1.68735002  *  -8.65034051  *  -1.56458598  *
    74       H         -0.69627706  * -10.10348826  *  -1.66159879  *
    75       H          2.03382280  *  -8.97581878  *  -0.97155011  *
    76       H          1.33834103  * -10.40808696  *  -0.22411142  *
    77       H          1.93471936  *  -9.10718797  *   0.80011982  *
    78       H          2.21547790  *  -6.98061158  *  -0.01112043  *
    79       H          2.21215159  *  -4.52520968  *   0.17338055  *
    80       C         -1.85803793  *   0.02078377  *   0.16421471  *
    81       N         -3.02097127  *  -0.01898983  *   0.21046086  *
    82       C         -4.40135558  *  -0.02757464  *   0.12920719  *
    83       C         -4.99919991  *  -0.02406034  *  -1.14074683  *
    84       C         -6.38270908  *  -0.01492381  *  -1.22608765  *
    85       C         -7.18445383  *  -0.01178206  *  -0.07311711  *
    86       C         -8.69468465  *   0.00992829  *  -0.22894877  *
    87       C         -9.08397125  *   1.29741173  *  -0.97559253  *
    88       C         -9.12157835  *  -1.22597350  *  -1.03866544  *
    89       C         -9.42988825  *  -0.01406106  *   1.11803220  *
    90       C         -6.56169759  *  -0.02220570  *   1.17868164  *
    91       C         -5.17535188  *  -0.02907873  *   1.29414636  *
    92       H         -4.38605946  *  -0.01967148  *  -2.04285559  *
    93       H         -6.85492060  *  -0.00849634  *  -2.21281721  *
    94       H         -8.74328209  *   2.19059908  *  -0.43931901  *
    95       H        -10.17513270  *   1.37623833  *  -1.07709092  *
    96       H         -8.66630825  *   1.33623600  *  -1.98611551  *
    97       H         -8.79766919  *  -2.15414224  *  -0.55462729  *
    98       H         -8.71556300  *  -1.22092429  *  -2.05460486  *
    99       H        -10.21526827  *  -1.27372506  *  -1.13307866  *
   100       H         -9.20479330  *  -0.91896310  *   1.69328862  *
   101       H        -10.51915404  *  -0.00097779  *   0.96776585  *
   102       H         -9.18997345  *   0.85973037  *   1.73416504  *
   103       H         -7.16081392  *  -0.02284404  *   2.09494905  *
   104       H         -4.70441981  *  -0.03187470  *   2.27669300  *
   105       C          2.06811586  *   1.98402417  *  -2.41197347  *
   106       C          1.26434659  *   1.01521119  *  -3.03247227  *
   107       P         -0.01146362  *   0.03686360  *  -2.09360623  *
   108       C         -1.54028586  *   0.69998230  *  -2.93261403  *
   109       C         -2.19228885  *   1.82964149  *  -2.40723254  *
   110       C         -3.28812652  *   2.37858013  *  -3.06931702  *
   111       C         -3.75367700  *   1.81481597  *  -4.25450746  *
   112       C         -3.11056110  *   0.69998988  *  -4.78263968  *
   113       C         -2.00483570  *   0.14774795  *  -4.13672512  *
   114       C          0.18931989  *  -1.68535130  *  -2.78729477  *
   115       C         -0.91916767  *  -2.54395541  *  -2.88781450  *
   116       C         -0.74848725  *  -3.85087907  *  -3.33892880  *
   117       C          0.51685352  *  -4.32003537  *  -3.68451373  *
   118       C          1.61656351  *  -3.47294372  *  -3.58608746  *
   119       C          1.46097970  *  -2.15900454  *  -3.14499982  *
   120       C          1.38592393  *   0.81892013  *  -4.42058789  *
   121       C          2.29288549  *   1.57395325  *  -5.16038623  *
   122       C          3.08482901  *   2.53485352  *  -4.53711078  *
   123       C          2.96894556  *   2.73568799  *  -3.16487772  *
   124       H          2.03476773  *   2.19498257  *  -1.34082746  *
   125       H         -1.88173768  *   2.32648757  *  -1.48382134  *
   126       H         -3.78258079  *   3.26057504  *  -2.65618873  *
   127       H         -4.61403678  *   2.25103935  *  -4.76953202  *
   128       H         -3.46514355  *   0.25665737  *  -5.71689310  *
   129       H         -1.53045394  *  -0.71775623  *  -4.61703349  *
   130       H         -1.93792101  *  -2.23165424  *  -2.63150416  *
   131       H         -1.61466910  *  -4.51044122  *  -3.42661863  *
   132       H          0.64340282  *  -5.34725737  *  -4.03621525  *
   133       H          2.60876256  *  -3.83376393  *  -3.86694679  *
   134       H          2.36085430  *  -1.53296519  *  -3.10764769  *
   135       H          0.78544330  *   0.08154802  *  -4.96930750  *
   136       H          2.37830961  *   1.41148875  *  -6.23847220  *
   137       H          3.79264722  *   3.12861430  *  -5.12235403  *
   138       H          3.58755170  *   3.48817261  *  -2.67293731  *

                             CARTESIAN COORDINATES

   1   Fe        0.027513870     0.044902774     0.057149235
   2    O       -0.072237186     0.119986297     2.178230978
   3    H        0.700471450     0.555831384     2.597758463
   4    H       -0.121695562    -0.759302756     2.608847541
   5    C        0.018348135     1.906572318     0.137311132
   6    N        0.014758522     3.083232511     0.212717273
   7    C        0.019490246     4.419343957     0.159396434
   8    C        0.000465598     5.089296348    -1.136593001
   9    C       -0.002173957     6.436143454    -1.173119237
  10    C        0.014395936     7.238264837     0.041308416
  11    C       -0.004035570     8.730629338    -0.082127864
  12    C        1.224381573     9.169505204    -0.902879018
  13    C       -1.299964468     9.137814576    -0.810746849
  14    C        0.037736831     9.448849060     1.274320767
  15    C        0.039259973     6.559992457     1.307262758
  16    C        0.041790541     5.209942056     1.393934881
  17    H       -0.010144325     4.476509317    -2.033622346
  18    H       -0.017762029     6.971574465    -2.129677020
  19    H        2.157232635     8.832247830    -0.437855888
  20    H        1.273237497    10.265188784    -0.972675932
  21    H        1.203799486     8.787271508    -1.927437255
  22    H       -2.188139947     8.785902702    -0.273604625
  23    H       -1.349100925     8.744792877    -1.830320380
  24    H       -1.376483588    10.231316310    -0.885090104
  25    H       -0.829607074     9.203422618     1.897218202
  26    H        0.025277330    10.540238886     1.138527005
  27    H        0.948880184     9.215025504     1.835888130
  28    H        0.055183765     7.166374452     2.221870014
  29    H        0.054978756     4.681637203     2.340612287
  30    C        1.884271177     0.010387498     0.082379405
  31    N        3.064024759    -0.032524545     0.041982125
  32    C        4.391099167    -0.035864776    -0.075195268
  33    C        5.111830867    -1.287870025    -0.280192005
  34    C        6.459757537    -1.268781310    -0.293034995
  35    C        7.213836619    -0.038694494    -0.115003906
  36    C        8.710247940    -0.109145152    -0.081186986
  37    C        9.124925815    -1.012836439     1.096237728
  38    C        9.201398149    -0.713475587    -1.411020913
  39    C        9.373566455     1.263396813     0.102702236
  40    C        6.488315073     1.192314328     0.016678259
  41    C        5.135402948     1.224962929     0.034564154
  42    H        4.535058952    -2.196316547    -0.420654584
  43    H        7.032077375    -2.192198764    -0.442671066
  44    H        8.752498835    -0.622954733     2.050540955
  45    H       10.219533774    -1.071378868     1.174053013
  46    H        8.758211015    -2.037538590     0.989047627
  47    H        8.852545749    -0.129313308    -2.269812264
  48    H        8.868837717    -1.746097882    -1.551493676
  49    H       10.299686311    -0.725033379    -1.449939316
  50    H        9.143073730     1.945958157    -0.722686848
  51    H       10.468977903     1.166203581     0.131069820
  52    H        9.079594024     1.740336217     1.044155369
  53    H        7.058043402     2.126279759     0.101985934
  54    H        4.571748072     2.146324106     0.123065546
  55    C        0.030948394    -1.838969436     0.158840967
  56    N        0.043573034    -3.001384097     0.237475994
  57    C        0.047624732    -4.383093496     0.182402785
  58    C       -1.173485537    -5.071351540     0.138532598
  59    C       -1.153951751    -6.453893194     0.029025884
  60    C        0.055100964    -7.164644969    -0.031506078
  61    C        0.012063726    -8.676619948    -0.166132566
  62    C       -0.806918928    -9.254260810     0.999953548
  63    C       -0.657283643    -9.016032704    -1.509112970
  64    C        1.408127783    -9.313620479    -0.138704545
  65    C        1.257459198    -6.452827084     0.026048724
  66    C        1.268405819    -5.066394386     0.133092024
  67    H       -2.118836176    -4.532880804     0.186812757
  68    H       -2.103656144    -6.997489081    -0.008908447
  69    H       -0.391668910    -8.954668224     1.969480969
  70    H       -0.807168456   -10.352916769     0.973555202
  71    H       -1.854252726    -8.938084371     0.974491552
  72    H       -0.104603491    -8.590177818    -2.353241134
  73    H       -1.687350025    -8.650340507    -1.564585977
  74    H       -0.696277063   -10.103488262    -1.661598794
  75    H        2.033822804    -8.975818783    -0.971550111
  76    H        1.338341029   -10.408086955    -0.224111422
  77    H        1.934719362    -9.107187968     0.800119818
  78    H        2.215477902    -6.980611580    -0.011120434
  79    H        2.212151585    -4.525209677     0.173380555
  80    C       -1.858037934     0.020783772     0.164214711
  81    N       -3.020971269    -0.018989833     0.210460856
  82    C       -4.401355583    -0.027574639     0.129207189
  83    C       -4.999199909    -0.024060336    -1.140746826
  84    C       -6.382709084    -0.014923808    -1.226087647
  85    C       -7.184453834    -0.011782060    -0.073117113
  86    C       -8.694684648     0.009928287    -0.228948765
  87    C       -9.083971248     1.297411729    -0.975592528
  88    C       -9.121578353    -1.225973499    -1.038665444
  89    C       -9.429888252    -0.014061058     1.118032196
  90    C       -6.561697587    -0.022205697     1.178681644
  91    C       -5.175351876    -0.029078735     1.294146360
  92    H       -4.386059457    -0.019671480    -2.042855591
  93    H       -6.854920599    -0.008496335    -2.212817207
  94    H       -8.743282091     2.190599079    -0.439319010
  95    H      -10.175132701     1.376238327    -1.077090919
  96    H       -8.666308246     1.336235998    -1.986115505
  97    H       -8.797669187    -2.154142237    -0.554627292
  98    H       -8.715562999    -1.220924286    -2.054604862
  99    H      -10.215268271    -1.273725057    -1.133078662
 100    H       -9.204793298    -0.918963096     1.693288616
 101    H      -10.519154041    -0.000977786     0.967765848
 102    H       -9.189973450     0.859730367     1.734165044
 103    H       -7.160813921    -0.022844037     2.094949054
 104    H       -4.704419814    -0.031874703     2.276693003
 105    C        2.068115859     1.984024175    -2.411973471
 106    C        1.264346585     1.015211192    -3.032472274
 107    P       -0.011463623     0.036863602    -2.093606232
 108    C       -1.540285862     0.699982297    -2.932614028
 109    C       -2.192288854     1.829641487    -2.407232545
 110    C       -3.288126521     2.378580125    -3.069317022
 111    C       -3.753677004     1.814815974    -4.254507462
 112    C       -3.110561105     0.699989882    -4.782639675
 113    C       -2.004835703     0.147747945    -4.136725120
 114    C        0.189319891    -1.685351298    -2.787294772
 115    C       -0.919167669    -2.543955407    -2.887814501
 116    C       -0.748487249    -3.850879075    -3.338928802
 117    C        0.516853519    -4.320035371    -3.684513732
 118    C        1.616563514    -3.472943720    -3.586087457
 119    C        1.460979699    -2.159004544    -3.144999816
 120    C        1.385923934     0.818920127    -4.420587895
 121    C        2.292885488     1.573953250    -5.160386228
 122    C        3.084829008     2.534853515    -4.537110778
 123    C        2.968945557     2.735687988    -3.164877716
 124    H        2.034767732     2.194982569    -1.340827460
 125    H       -1.881737678     2.326487572    -1.483821339
 126    H       -3.782580794     3.260575040    -2.656188729
 127    H       -4.614036785     2.251039346    -4.769532019
 128    H       -3.465143546     0.256657367    -5.716893099
 129    H       -1.530453943    -0.717756233    -4.617033490
 130    H       -1.937921009    -2.231654237    -2.631504162
 131    H       -1.614669103    -4.510441224    -3.426618631
 132    H        0.643402825    -5.347257368    -4.036215250
 133    H        2.608762557    -3.833763929    -3.866946792
 134    H        2.360854305    -1.532965192    -3.107647687
 135    H        0.785443297     0.081548020    -4.969307500
 136    H        2.378309615     1.411488755    -6.238472200
 137    H        3.792647218     3.128614296    -5.122354032
 138    H        3.587551697     3.488172614    -2.672937310


           Empirical Formula: C62 H69 N4 O Fe P  =   138 atoms

    Hessian matrix from geometry optimization
  990.7391
   -5.9726  991.4317
    3.4210   55.8042  915.4365
  -51.4997  -37.0161   15.3513  703.0788
    2.8903  -47.4152  -16.6042  154.5221  520.8403
    4.0096  -44.1185 -180.3122   69.9353 -122.3039  430.3541
   -2.9770   30.1928  -10.5528 -386.9959  -42.1133 -159.1560  532.3585
    2.8882    2.4804  -11.0020  -26.7224  -80.6267  -14.4114   36.1676  239.5948
  -13.8657   27.9264   -0.3543 -181.7301   -5.6534 -144.1495  187.6175   12.3336  253.9382
   -2.6337    4.3462   -4.9973 -146.8955 -115.9903   80.6767   33.5502  -35.0248    4.5000  288.0279
   -7.8691  -12.5847    0.2271 -140.7083 -309.8813  143.2293  -12.2027  -50.3454   -4.8676  129.0000
  454.8247
    5.4576   13.3572   -5.2475   80.3562  154.6033 -134.8673   -3.0658   -7.9598  -26.7821  -86.9248
 -166.9419  226.0924
 -120.1482   -3.7710   -1.4799   -7.3409   -4.4399   -5.8943    5.9811    1.1490    7.4706    5.0894
    4.5412    0.6331  222.5020
    0.0348 -267.3486    5.2331   33.7354   -4.8799   -2.9399  -15.4736   19.2125    1.6155  -16.8449
    0.4980   24.2338  -12.8795 2177.1063
   17.7133   -8.5993 -140.9404   10.8960   28.5949   13.0986    4.0711   -2.9675   -5.4492  -12.4089
  -20.3538   11.0768   -8.3036   65.7502  267.7353
    2.8498   -0.0288    4.4774   -4.6473    2.3431    5.1040    2.4239    1.0808   -1.3936    2.9581
   -0.5868   -1.4510  -12.5700   11.4314    6.7151  208.4096
   27.9574 -122.8050  -44.3749  -15.6426    6.5441   34.5806   -7.6885  -18.4844  -17.0866   21.8546
   22.5606  -19.3186   13.1664-1664.4715  -56.5336  -11.5236 2625.6802
  -14.7042    7.2919    2.3380  -11.5717  -19.1503    0.5973    1.3456    4.3714    3.7009    0.7027
   20.1042  -11.2457    8.1697  -79.7820  -57.8569   -7.4206   61.1355  265.8346
   -4.6377   -5.3339   -5.2718   -5.6126   -7.0430   -4.7220   -5.7493    0.5307    4.2684   -0.4539
    3.6016   -0.3538    0.0706   -5.8129   -3.2044  -11.9628    7.1683   -0.3131  213.8800
  -16.9652   -9.8635   17.1014   -9.2050   -7.6154   -9.6546   11.7471   -1.3012   11.0867   -5.3931
   11.9747   -1.3259    3.4955 -250.6901    4.0863    0.4194 -642.5200    4.0622    0.3280 1404.7264
   17.3365  -20.2177    6.3283  -11.4782   30.3703  -23.1362   16.1288    3.4240    2.4258   -5.1978
  -19.3520   12.1369    0.0584  -14.2732   12.0319   -5.3995   33.3920  -98.3715   36.9135  -22.3840
 1135.9940
  -24.1396    7.2426    1.1764   -1.9936   -7.5498    7.8566   -6.0307    0.6576   -3.2691    6.3672
   11.7576   -3.1942    3.5220   -2.9613   -5.1676   -2.2009   -2.3042    8.2205  -19.7995    4.2564
  -16.7533  223.2224
  -10.8802    6.7106  -25.8186  -29.3895    2.1335    8.9644   33.6900  -11.5574   12.5133   11.6755
   18.9231   -9.3291    6.7885  -38.3178    8.2641   -2.2184  -41.0494   33.6864   14.6654 -156.4179
  159.0950   -8.5387 1697.3171
  -17.2107    4.0748  -32.3465  -20.9828    0.9831  -11.1762   19.6540    2.6640   12.9132    6.6927
   11.1327    9.8249    6.9810   24.3772   21.5007    0.6034   31.8862  -21.9921  -20.6592  179.1591
 -429.1018   24.9819  -52.6814  994.5299
   -6.1638   -5.4319   -1.9734  -21.3224    6.6398  -11.2518   16.0353    6.9712    8.8668   -3.7555
  -11.9893    3.7062   -4.7337    5.0922    3.6171   -3.9935    9.5103   -8.5045    7.9417    9.6700
   -4.4148  -30.8340   -2.1792    6.6817  231.9817
   -9.1712  -21.1117   28.0838   20.9848   -7.5071   -1.7867   -9.5849    3.0404  -12.8869   -0.8045
   -4.4703  -10.4814    6.7992   40.6555   -5.9644   -2.0623    6.7595  -24.5518   -3.1392  -72.4704
   94.5145   15.3440-1125.0519   42.8303  -17.4971 1700.8523
   -2.1424  -16.4080  -16.1455    0.5299   15.8441   -7.1320    4.4976    4.1415    6.1249  -14.2836
   -7.0988    5.9035   -3.8143  -23.9185    2.9624    7.3685   18.5045   -5.5795   -6.3843   66.1348
  -51.1743   -1.6352   46.5764  -95.4775   27.9393    2.4601  953.7673
  -16.1024   10.1661    5.9986   -6.9188   -7.7554    0.5547   -1.7127    4.5172    0.7306    3.7096
    0.5760   -2.1165    1.4693   -7.1698    1.1128   -2.5491   -9.4149    4.1497  -13.0277   -5.5303
    2.5219   15.3884   12.6099   -2.4207  -33.2884    8.4081  -14.8300  242.3129
   -1.9764    1.5890   35.6534  -12.4333    2.2610  -20.4762    4.1113    3.8462   -1.0620    7.1377
   10.6208   -0.0662   -1.6780   78.2831  -15.2022    3.5182  -37.7542    1.7856    3.1046  -46.9129
   -7.0560    0.4430  -79.7513  -64.1906  -10.3337 -234.7171 -218.5571  -11.5013 1104.5307
   18.2744   15.5795  -29.4886  -10.6054   17.4207   11.9071   -3.3642   -4.8939   -5.8142    6.7805
   -4.0589    0.2387   -4.8614   11.7822    9.7263    3.0293  -27.4538  -16.4598    5.4664    5.2163
   27.0880   -5.1062  -86.6756  -40.8411  -13.9636 -146.7063 -386.8343   38.1599  -50.9331 1185.4108
  -11.7549  -15.0574    2.2731  -18.2079   -7.0575  -12.2573   15.2498    6.3426   10.1837    5.0445
   19.9770    4.0690   -2.5607    4.0180    8.4990   -5.2817    5.6067    0.5204   -4.2987    8.3338
  -23.6002   -9.7746   -4.5074   -0.0966   23.7163  -34.3226   12.9339  -89.3531   18.8310    1.0156
  854.1734
   31.9438  -31.4258  -49.0051   -9.0485   -8.9647   14.8537    6.1456   15.5586    8.5306   -8.0926
    5.8866    6.2966   -6.4177   -6.0983   23.7414   -3.3333   28.9400  -16.2240    0.4765   23.5628
   18.8976   -0.6533   -4.6947  -22.0875   -3.4882  -53.5245  -14.0242   12.2467 -423.5246   16.5840
  -15.2921  955.3412
   15.0952   -9.3930  -20.7252    4.5974   12.1853   -7.6854   -2.5785    2.5657   -7.9134    0.3830
    1.7732   13.9152   -5.7261  -14.6883    3.4227   -0.2216    6.1176   -3.6017    5.4043   -8.5732
   -5.2291   -5.7580    9.3185  -21.0081    6.9196  -43.2772  -31.1433  -11.4364   51.2562 -124.8549
   25.8354    1.5812 1005.1605
  -35.3331   -1.9772    9.9337   -6.9274    0.5011   -7.5121   23.8846    8.6672    4.4493  -16.2031
   -3.0718    4.1537   -5.6221   -3.8095  -21.1776    0.9148  -27.9873   10.7388   -4.1995   17.3014
   10.2048  -15.2251   21.0820    1.0914  -12.6251   27.2090  -22.1264   -0.9925  -30.6149  -17.7150
 -262.0013  -46.3961   76.2830  726.8591
   -0.1821  -23.7505   -6.0742   25.2574  -10.2909    7.9416  -24.5092    2.6968  -19.0759   15.7812
   -3.9689    7.4193    5.3838   -7.7115    4.7876    3.4295  -10.0461  -15.3136    1.8070    1.1993
    0.5235    5.6085   -7.6160    9.1511   -0.8631   -9.0532    2.4144   -4.7809  -51.6347   27.7858
  -57.2332 -123.9984   43.7343  -16.3803  823.3613
   -8.0774    7.0056  -22.1141   -0.2415   26.4959  -10.8086    7.2646   -6.1683    5.3339   -7.5122
  -18.3726    1.1878   -1.8062   16.3327    7.4941   -3.2996   -8.7820  -23.3577    3.1226   -3.0817
  -21.1224  -15.6303  -10.3659  -22.4203    7.0055    5.8593  -18.2971  -17.7658   18.5219  -22.4048
   94.6701   54.1261 -223.7323  -33.1721   32.9379  767.5891
  -26.4364  -13.6079  -21.9637  -18.7245  -10.8472    9.8191   10.5894  -12.6402    9.0841    5.5260
    9.1888  -11.5962    1.0921   -6.3306    7.4749   -9.4743   27.2102    2.4829   -4.4292  -16.2858
    4.7727   -8.5609   -2.4613   -4.0793  -16.0360    6.5000    2.6963   -1.6743   33.3184   -3.1954
 -297.1300   48.3225  -78.9222 -114.1767    6.3969  -19.9690  776.4721
  -14.4109  -27.5574    0.9483    3.8526  -16.2950    0.8291    5.9517   12.5203   -4.8201  -12.1686
   -2.4819   14.1358    2.4991  -19.6817    1.9483   -4.5756    9.3616   -1.1003   -3.9069    1.2323
   -5.6070    0.9257   -3.7464   -0.1798   -7.2965   -6.7210  -10.2923   23.7268  -52.3576   17.2868
   45.0602 -123.7366   40.2394  -26.0532   19.2448  -45.3864   -7.6628  816.3476
  -17.0696    6.1882  -20.6857   11.6392    4.6407  -14.4819   -5.2509    9.7413    6.4016   -1.0589
   -0.7509    2.0894    7.6961   -3.2672  -19.3954    3.2257   16.5050    0.1015   -2.7135   -4.4671
  -19.3233    6.4150   -3.1158  -20.4673   -3.8300    5.7852  -26.6062    1.6718    4.5169  -27.4398
  -75.3029   44.5579 -191.3457   50.1518  -32.7367   28.7846   10.6380   33.9912  759.0908
  -36.8788   16.0361   -5.7078   -9.2206    3.1977    9.1273    0.3466  -14.5609   -0.2578   -7.9617
    1.1813   -8.0237   -6.9113   25.5846    9.2410  -12.7909  -24.6246  -10.8590  -13.1883   -8.2750
    4.5207  -20.7357  -12.3278   -8.7606  -14.0145   17.5321    6.5605   -8.6459   -4.2393   -6.8884
 -143.8754    8.6954  -24.3307  -15.9336   22.3274  101.9784   12.4529    4.9486  -87.0751  759.2134
    1.5990  -29.4819    6.9636   -8.5272   -4.3452    7.2507    8.0579    1.3987    0.2213   -2.2793
    1.8063   -0.7120   -2.8206   -3.5544    5.2862    2.9047  -13.4422   -6.5995    4.4533   11.0143
   -0.8233   -9.0591    1.5728   20.0045    8.9082   -7.7748   -1.0685   -0.9860  -53.8635  -26.1618
   -8.9416 -151.0910  -73.4118   10.8607  -19.4032   21.0375    8.7866    2.2785   -0.9531  -13.7784
  814.1708
  -10.8539   36.9108    9.7924    6.9968   -1.4269    2.8737  -16.6018    7.0543   -0.7242   -6.8161
   -2.7930   -4.4146    7.6329   -2.6908  -14.5648   -8.2920  -10.1639   -6.1135    4.0293   11.6929
  -27.3514   -0.8655   -6.7695   -9.2177    1.8768    9.4397  -19.5345    1.8542  -21.6453  -24.8934
  -14.9818  -82.3053 -337.8692   28.6554  -23.7295  -84.3544  -15.4088  -20.0227  -80.0311   -5.2865
   -5.9908  817.7302
   -9.7878   -4.6091    1.7840  -16.6534   -2.6172   -8.1620    8.8745    7.5796    7.4173   -2.6634
   -3.4931    2.2638   -3.8356    8.8135    2.2785   -3.8040    5.5603   -6.6324    5.7446    3.7378
   -0.8765  -25.3480   -5.9518    9.2245   22.8813  -12.3604   -7.1315  -32.4943    9.6174  -18.7771
   21.4912   -2.9745    0.4191  -10.7282    6.8144    7.4928  -12.2181   -7.3130   -4.6688  -19.4637
    5.4821    0.4878  222.0925
  -21.7313   27.7764   -0.4435   -5.2872    1.3724  -13.4677   10.0748  -12.9734    9.9332   -7.3158
   -1.8529   -3.3714   -2.0736   60.8545    5.7528    6.6176  -87.4441   11.5297    5.2525  -42.7085
  -82.3778   -5.8344  -22.2159  -25.1564   -0.7467   50.8236   29.7201    3.6056 -214.0235  140.3237
   17.7727  -55.9755   37.5960   -1.8828    9.8321    8.0642   -0.5221   -6.7925    2.4380   -4.4309
  -13.2063    1.3829   -4.5137 1574.4478
   -3.9804  -10.2793  -20.8944    0.4614   21.7794    6.4903  -11.2253   -1.9878   -1.3461    0.3348
   -9.3664    0.2857   -0.3530  -33.2186  -16.7604    0.9954   33.1633    3.4619    1.8861  -59.6545
  -20.4743    4.0973  -12.1285  -21.9927   -7.0423   -7.2888  -91.9681  -22.1791  229.3457 -489.9012
   -9.0034   31.8988  -27.6358  -15.6512  -12.1365  -31.2892    4.6517   -6.5461  -34.0461    8.0713
    4.0247  -12.7287   33.0226  -40.7884 1059.8091
  -23.8681    3.9840   -0.9064   -1.6430   -5.8663    9.6186  -11.6715   -7.5297   -2.9146    7.8555
   17.6299   -4.4845    2.6937   -3.6426   -3.7709   -2.7418   -2.3776    7.5916  -17.1912  -11.2103
  -15.3785   16.1789    0.3213  -10.9585  -27.2739    7.4715    4.1345   10.4056    7.1153   -1.1736
   -7.5577    1.3374   -5.5634   -9.7162   -2.5182  -11.4978   -7.5125    3.3820    6.3716  -18.6585
   -6.7678   -3.2214  -27.3923    1.5516   -0.7096  216.4644
   -0.3247  -12.1165  -14.8213    7.9384  -12.2051   23.2859  -14.9257    2.5452   -3.4667    0.5337
    3.7160   -8.2355   -2.4983  -17.5353   -5.7758   -0.2694  -29.8679  -23.8550   -9.2939 -185.9739
 -150.0523    4.9752    3.8217  -18.6323   -4.0739   -5.1926    0.0138   -1.1197  -62.0862  129.5744
    8.5257  -13.4768    8.2938   13.3289    4.8803   -4.1279  -12.9707   -1.2894   -0.7433    4.7361
  -14.8628   26.1254   -0.5604-1034.1118   -7.1624    1.9993 1622.3185
    5.4725   24.3066  -15.2607    4.6594   21.4870    2.1530   -5.1612    3.2144   -2.2822    1.0621
   -5.3370    5.9670   -1.1161   12.3884   -8.5912   -1.4444  -57.4910    0.9086  -25.2524 -182.0396
 -419.2124    1.0335   41.3789  -93.4791   -0.9784  -49.1971  -23.8775    1.5615   88.3135  -32.8592
  -15.6522    4.2628    5.8333    9.4101   -6.0721  -29.9809   -0.1708   -9.1581  -27.7884   -0.3332
  -10.4819  -20.0125  -10.4542   37.3916 -120.5930   39.8123  -11.7991 1025.4052
   -1.0197   -1.1619    0.6399   -2.4505    0.1440   -0.4717   -0.6900    3.3070    1.6020   -1.0341
   -0.5994    0.8906   -1.1075   -1.0689   -0.5757   -1.2259    1.2793   -2.0355    0.5515    0.2905
   -2.4415   -5.7281   -1.8432   -8.7788    2.7024   -2.6344   -0.8933   -3.2898    1.7982    1.2359
    1.7512    1.1656    3.0300   -3.3403   -0.8057   -0.4723   -4.8925   -0.3760   -0.7706   -4.7909
   -0.9287    0.1781    1.5363   -1.1338   -1.7830   -5.1570   -1.2449    1.1228  199.2839
    6.9745   -4.9687    9.7232   11.8799    1.2491    3.7794  -15.0520    0.9851   -8.4141   -2.8778
    2.1635   -0.5713   -3.5225   -4.2474   -7.1055    1.7855    1.5495    9.5639   -0.9897   17.7650
   -2.9398   -6.1930 -131.1723 -157.9431    3.0913  -48.9077  -30.3689   -8.0133   34.6646   34.4409
    8.8890   23.6851    3.9772  -12.2132   -1.5905    4.1295    4.3781    2.9751    8.1977   -0.0294
    4.0406   12.7135    4.1761    2.8258   21.4329   -0.8398    0.7327    5.2774    3.4788  292.1002
   10.7291   -9.1257   12.0404   18.1274    5.3023    9.1965  -21.2396    4.9556   -5.1761  -12.4623
   -1.4011    2.9047   -6.2977  -21.5187  -16.5765    2.6268    9.6819   21.5258   -4.6561    0.2303
  -58.1241   -9.9544 -139.0544 -278.2654    2.8611  -56.3924    5.8301   -5.4063   24.3413   27.2387
   15.9927   26.9757    6.5730  -16.0387   -0.5855    2.8825    2.5062    6.9704    7.5799   -0.9445
   -0.0045   14.2701    2.5568   16.7495   14.9019    0.8417   15.1449   32.3837    3.3514  136.4336
  404.1706
   -3.0062    3.3829    0.0039   -5.0857   -0.3311   -2.7890    1.0240    1.5960    0.9212    0.7913
   -0.8475   -0.7761    0.4233   -0.7092    0.0518   -0.6721   -3.9781    1.2985   -3.8020   -2.7443
    2.2147    2.4918   -1.1470    1.0701   -7.2711    8.8465  -10.0284    4.1525    1.4023    0.0148
   -4.0578    2.4105    0.1466   -4.7417    2.5224   -3.7523   -3.6263   -0.2048   -0.5400   -5.8705
   -0.4929   -1.1452   -6.0228   -1.9270    3.4097    0.7766    0.5613    0.8322   -1.4114   -2.2145
   -1.2662  199.4353
    2.0145    0.7785   -4.9653   -4.0791    3.9118   -6.2019    0.9089    2.1846    2.4223   -1.1687
   -1.1347    6.7836   -1.8769   24.2068    3.9058    2.8495   13.8758   -8.3815   -0.4845   10.9857
  -37.9966   -0.8756  -32.0056   22.6564    9.7642 -120.3635  138.1798   -7.3235   33.3844   -6.5495
    4.6636    5.6675  -18.9052  -12.4635   -1.3954   -0.3289    1.0290   -7.8648   -3.6032    1.6057
   -3.9900   -3.2327    3.2174   -5.4562   -3.9457   -0.4257    1.3270   -5.7026    0.7757    5.8138
    7.6541   -4.8300  268.1583
   -3.1742    2.1075    7.5126    8.3926   -2.2804    5.4882   -4.9894   -1.1679   -5.6430    1.2669
    9.7829   -8.1685    3.1299  -14.4284   -3.7085   -3.7040  -28.6191    4.1904   -2.3519  -13.1588
   30.6021    2.8838   13.4476   13.4578  -15.4414  166.7464 -275.2936    4.2844   -5.3102  -45.1427
   -6.1478  -17.2378   29.0238   15.6152   -4.8848    3.0504    7.1723    6.9453    6.7911   -1.7999
   14.7046   11.2349   -2.0201  -20.0960   33.8181   -1.0568  -20.4787   10.6151   -1.8832   -2.3494
   -8.8308    6.7212 -113.6091  403.5550
    9.3704    5.0741   -9.1544    2.6815   -1.9513    5.7078  -20.5304   -1.9332   -5.7628   13.2465
   -3.8013   -0.9287    4.2717   -1.5817    9.1534   -2.3931   12.6287   -4.1827    0.2315   -7.9292
    2.2516    9.0359   -8.9110    3.6275   -0.6070  -15.7010   14.5892   20.4606   -4.0623   20.7852
   -7.7912    2.5215   13.7151 -246.9929   93.0016  -86.5065   66.0001   12.9583  -25.6935  -11.4497
   -5.1973   -4.9450   -2.7552   -1.9517   13.3129    3.0902   -1.6394   -2.5672    1.0822    3.5914
    6.2238    2.6777    7.7013  -15.6366  377.8918
   -5.3079   -1.4006    3.7068   -3.7683   -3.6920   -2.2008   10.0025    2.1500    2.3562   -3.8528
    1.5497   -0.6793   -1.3948    1.6447   -2.7805   -0.6171   -5.4712    3.7627   -0.0067    1.8952
    1.7867   -4.5714    2.5136   -0.4859    0.0504    3.6032   -2.6687   -4.0597   -0.9606   -8.1302
  -11.1298   13.9507   -7.5330   83.8591  -75.9397   30.8019  -15.9350  -13.5158   13.7355    6.7316
   -1.4137    0.8009   -0.1398    0.8685   -2.7971   -2.4160   -0.7228    4.6578   -0.1066   -3.7070
   -0.6927   -1.5184   -3.6439    5.5166  -62.9626  217.8118
    6.0287    1.2670   -6.8859    2.1929   -0.0297    1.4089  -10.0646   -1.6846   -4.4692    7.5947
   -1.9126   -3.3663    3.1382    0.0154    4.3089    0.0122    6.2050   -0.5660    0.4799   -2.2582
    2.5807    6.0135   -5.1885    1.8065    0.6200   -7.9318    4.7260    6.6384   -2.9602    9.4533
   19.2974   -5.8266   27.2831 -112.5300   41.3920  -86.9979   19.6037   12.2988  -26.8601  -16.9496
   -1.2481   -4.0033   -0.5481   -2.1607    3.1059    3.3708    3.3408   -1.8666    1.0420    1.8940
    5.6777    1.5443    1.9028   -5.4747   83.2088  -30.6032  241.8204
   -3.0795   -0.3759   -0.5525   -0.6084    4.0837    0.1140   -2.5448   -0.9474   -1.9058    0.3578
    3.3537   -2.9207    0.6217   -2.4808   -0.1574   -0.5093    2.2883   -0.2405   -1.4984   -5.8771
   -4.3450    0.2521   -1.2955   -0.2190   -1.7412    1.7708    1.6368    0.4357   16.8362   -0.1285
    3.2041  -31.0447    5.1980  -37.3977   -7.3273   -1.4565    6.6642    4.2900   -3.6776   -4.1016
[...]
 100.83668 101.66877 101.77587


              NET ATOMIC CHARGES AND DIPOLE CONTRIBUTIONS

  ATOM NO.   TYPE          CHARGE      No. of ELECS.   s-Pop       p-Pop       d-Pop       
    1         Fe           0.837225        7.1628     0.45650     0.46238     6.24390
    2          O          -0.621078        6.6211     1.78225     4.83883
    3          H           0.383799        0.6162     0.61620
    4          H           0.381949        0.6181     0.61805
    5          C           0.057162        3.9428     1.30965     2.63319
    6          N          -0.247128        5.2471     1.50601     3.74112
    7          C           0.179824        3.8202     1.05903     2.76115
    8          C          -0.257958        4.2580     1.07987     3.17809
    9          C          -0.045942        4.0459     1.10080     2.94514
   10          C          -0.024098        4.0241     1.10863     2.91547
   11          C           0.103031        3.8970     1.04816     2.84881
   12          C          -0.454938        4.4549     1.05962     3.39532
   13          C          -0.453814        4.4538     1.05967     3.39415
   14          C          -0.461669        4.4617     1.05897     3.40269
   15          C          -0.070547        4.0705     1.09626     2.97429
   16          C          -0.243409        4.2434     1.08131     3.16210
   17          H           0.170558        0.8294     0.82944
   18          H           0.178334        0.8217     0.82167
   19          H           0.151222        0.8488     0.84878
   20          H           0.169315        0.8307     0.83069
   21          H           0.145182        0.8548     0.85482
   22          H           0.152978        0.8470     0.84702
   23          H           0.145415        0.8546     0.85459
   24          H           0.169071        0.8309     0.83093
   25          H           0.151906        0.8481     0.84809
   26          H           0.168844        0.8312     0.83116
   27          H           0.150819        0.8492     0.84918
   28          H           0.184625        0.8154     0.81538
   29          H           0.167787        0.8322     0.83221
   30          C           0.027247        3.9728     1.30895     2.66381
   31          N          -0.241345        5.2413     1.50353     3.73782
   32          C           0.184481        3.8155     1.05959     2.75593
   33          C          -0.251306        4.2513     1.07850     3.17281
   34          C          -0.051045        4.0510     1.10084     2.95020
   35          C          -0.020266        4.0203     1.10895     2.91132
   36          C           0.103506        3.8965     1.04833     2.84817
   37          C          -0.453848        4.4538     1.05960     3.39425
   38          C          -0.454324        4.4543     1.05960     3.39472
   39          C          -0.462309        4.4623     1.05905     3.40326
   40          C          -0.066690        4.0667     1.09593     2.97076
   41          C          -0.249318        4.2493     1.08184     3.16747
   42          H           0.167715        0.8323     0.83229
   43          H           0.178965        0.8210     0.82103
   44          H           0.153528        0.8465     0.84647
   45          H           0.170006        0.8300     0.82999
   46          H           0.145560        0.8544     0.85444
   47          H           0.151964        0.8480     0.84804
   48          H           0.145625        0.8544     0.85437
   49          H           0.169938        0.8301     0.83006
   50          H           0.149851        0.8501     0.85015
   51          H           0.169908        0.8301     0.83009
   52          H           0.151300        0.8487     0.84870
   53          H           0.184273        0.8157     0.81573
   54          H           0.165953        0.8340     0.83405
   55          C           0.087825        3.9122     1.32287     2.58931
   56          N          -0.256806        5.2568     1.51889     3.73791
   57          C           0.111788        3.8882     1.03583     2.85238
   58          C          -0.157110        4.1571     1.08658     3.07053
   59          C          -0.151940        4.1519     1.08885     3.06309
   60          C           0.049259        3.9507     1.09867     2.85207
   61          C           0.106346        3.8937     1.05073     2.84292
   62          C          -0.458647        4.4586     1.05931     3.39933
   63          C          -0.458322        4.4583     1.05940     3.39892
   64          C          -0.464667        4.4647     1.05916     3.40550
   65          C          -0.158740        4.1587     1.08820     3.07054
   66          C          -0.154583        4.1546     1.08670     3.06788
   67          H           0.169411        0.8306     0.83059
   68          H           0.184637        0.8154     0.81536
   69          H           0.154780        0.8452     0.84522
   70          H           0.168580        0.8314     0.83142
   71          H           0.147949        0.8521     0.85205
   72          H           0.148166        0.8518     0.85183
   73          H           0.147345        0.8527     0.85266
   74          H           0.167784        0.8322     0.83222
   75          H           0.147525        0.8525     0.85247
   76          H           0.169191        0.8308     0.83081
   77          H           0.152983        0.8470     0.84702
   78          H           0.186340        0.8137     0.81366
   79          H           0.165302        0.8347     0.83470
   80          C           0.103677        3.8963     1.31803     2.57830
   81          N          -0.250481        5.2505     1.51747     3.73301
   82          C           0.110077        3.8899     1.03517     2.85475
   83          C          -0.163167        4.1632     1.08804     3.07512
   84          C          -0.160002        4.1600     1.08807     3.07193
   85          C           0.051513        3.9485     1.09835     2.85013
   86          C           0.105609        3.8944     1.05075     2.84364
   87          C          -0.458776        4.4588     1.05947     3.39931
   88          C          -0.459003        4.4590     1.05932     3.39968
   89          C          -0.462625        4.4626     1.05902     3.40361
   90          C          -0.158857        4.1589     1.08834     3.07051
   91          C          -0.146064        4.1461     1.08752     3.05855
   92          H           0.171464        0.8285     0.82854
   93          H           0.179169        0.8208     0.82083
   94          H           0.152348        0.8477     0.84765
   95          H           0.167540        0.8325     0.83246
   96          H           0.145053        0.8549     0.85495
   97          H           0.151823        0.8482     0.84818
   98          H           0.145002        0.8550     0.85500
   99          H           0.168103        0.8319     0.83190
  100          H           0.151577        0.8484     0.84842
  101          H           0.168157        0.8318     0.83184
  102          H           0.151776        0.8482     0.84822
  103          H           0.188335        0.8117     0.81166
  104          H           0.170418        0.8296     0.82958
  105          C          -0.105521        4.1055     1.07793     3.02759
  106          C          -0.071308        4.0713     1.03482     3.03649
  107          P          -0.242461        5.2425     1.63062     3.45057     0.16127
  108          C          -0.071827        4.0718     1.03726     3.03457
  109          C          -0.109464        4.1095     1.07779     3.03167
  110          C          -0.164936        4.1649     1.08768     3.07725
  111          C          -0.088287        4.0883     1.09214     2.99615
  112          C          -0.157046        4.1570     1.08859     3.06846
  113          C          -0.089628        4.0896     1.08450     3.00513
  114          C          -0.083318        4.0833     1.03846     3.04486
  115          C          -0.108365        4.1084     1.07971     3.02866
  116          C          -0.159608        4.1596     1.08785     3.07176
  117          C          -0.093168        4.0932     1.09211     3.00106
  118          C          -0.159785        4.1598     1.08816     3.07162
  119          C          -0.097194        4.0972     1.08198     3.01522
  120          C          -0.073998        4.0740     1.08394     2.99006
  121          C          -0.157062        4.1571     1.08861     3.06845
  122          C          -0.075252        4.0753     1.09251     2.98274
  123          C          -0.172758        4.1728     1.08622     3.08654
  124          H           0.142535        0.8575     0.85746
  125          H           0.148650        0.8513     0.85135
  126          H           0.171906        0.8281     0.82809
  127          H           0.176496        0.8235     0.82350
  128          H           0.177155        0.8228     0.82285
  129          H           0.167210        0.8328     0.83279
  130          H           0.159495        0.8405     0.84051
  131          H           0.172025        0.8280     0.82797
  132          H           0.173790        0.8262     0.82621
  133          H           0.174483        0.8255     0.82552
  134          H           0.164423        0.8356     0.83558
  135          H           0.165270        0.8347     0.83473
  136          H           0.179872        0.8201     0.82013
  137          H           0.175847        0.8242     0.82415
  138          H           0.166925        0.8331     0.83307
 DIPOLE           X         Y         Z       TOTAL
 POINT-CHG.     1.675    -0.528     1.822     2.531
 HYBRID         0.215    -0.071     1.548     1.564
 SUM            1.891    -0.600     3.370     3.911


          ATOMIC ORBITAL ELECTRON POPULATIONS

     Atom    s        px        py        pz      x^2-y^2     xz        z^2       yz        xy
    1 Fe   0.45650   0.17814   0.17615   0.10809   0.68831   1.66711   0.61184   1.69603   1.58061
    2  O   1.78225   1.64240   1.50043   1.69600
    3  H   0.61620
    4  H   0.61805
    5  C   1.30965   0.87260   0.99621   0.76438
    6  N   1.50601   1.28970   1.10088   1.35054
    7  C   1.05903   1.02877   0.73486   0.99752
    8  C   1.07987   1.12088   1.03247   1.02474
    9  C   1.10080   0.87960   0.99314   1.07240
   10  C   1.10863   0.95261   1.01020   0.95266
   11  C   1.04816   0.96362   0.90555   0.97964
   12  C   1.05962   1.08163   1.18280   1.13089
   13  C   1.05967   1.06926   1.18406   1.14083
   14  C   1.05897   1.17644   1.16325   1.06300
   15  C   1.09626   0.90334   1.00371   1.06724
   16  C   1.08131   1.11392   1.01651   1.03167
   17  H   0.82944
   18  H   0.82167
   19  H   0.84878
   20  H   0.83069
   21  H   0.85482
   22  H   0.84702
   23  H   0.85459
   24  H   0.83093
   25  H   0.84809
   26  H   0.83116
   27  H   0.84918
   28  H   0.81538
   29  H   0.83221
   30  C   1.30895   0.99505   0.77576   0.89300
   31  N   1.50353   1.10127   1.34887   1.28768
   32  C   1.05959   0.74313   1.00017   1.01264
   33  C   1.07850   1.02532   1.02979   1.11770
   34  C   1.10084   0.99772   1.06600   0.88648
   35  C   1.10895   1.01167   0.95205   0.94760
   36  C   1.04833   0.90280   0.97988   0.96549
   37  C   1.05960   1.18446   1.12100   1.08880
   38  C   1.05960   1.17981   1.15189   1.06302
   39  C   1.05905   1.16983   1.05979   1.17364
   40  C   1.09593   0.99805   1.06964   0.90307
   41  C   1.08184   1.02344   1.02586   1.11817
   42  H   0.83229
   43  H   0.82103
   44  H   0.84647
   45  H   0.82999
   46  H   0.85444
   47  H   0.84804
   48  H   0.85437
   49  H   0.83006
   50  H   0.85015
   51  H   0.83009
   52  H   0.84870
   53  H   0.81573
   54  H   0.83405
   55  C   1.32287   0.78091   1.00479   0.80361
   56  N   1.51889   1.32642   1.10642   1.30508
   57  C   1.03583   1.00938   0.71978   1.12323
   58  C   1.08658   1.03563   1.02704   1.00786
   59  C   1.08885   1.08226   0.98858   0.99225
   60  C   1.09867   0.95846   1.01700   0.87661
   61  C   1.05073   0.97789   0.89626   0.96877
   62  C   1.05931   1.13277   1.17429   1.09227
   63  C   1.05940   1.14704   1.18921   1.06267
   64  C   1.05916   1.05753   1.17171   1.17626
   65  C   1.08820   1.08487   0.98721   0.99846
   66  C   1.08670   1.03509   1.02770   1.00509
   67  H   0.83059
   68  H   0.81536
   69  H   0.84522
   70  H   0.83142
   71  H   0.85205
   72  H   0.85183
   73  H   0.85266
   74  H   0.83222
   75  H   0.85247
   76  H   0.83081
   77  H   0.84702
   78  H   0.81366
   79  H   0.83470
   80  C   1.31803   1.00148   0.80461   0.77220
   81  N   1.51747   1.10513   1.30328   1.32460
   82  C   1.03517   0.72077   1.12806   1.00592
   83  C   1.08804   1.03605   1.00839   1.03069
   84  C   1.08807   0.98452   0.99889   1.08853
   85  C   1.09835   1.01631   0.87511   0.95871
   86  C   1.05075   0.89805   0.96759   0.97800
   87  C   1.05947   1.18584   1.07375   1.13972
   88  C   1.05932   1.18410   1.08235   1.13322
   89  C   1.05902   1.16083   1.17707   1.06572
   90  C   1.08834   0.99614   0.99854   1.07583
   91  C   1.08752   1.01634   0.99659   1.04562
   92  H   0.82854
   93  H   0.82083
   94  H   0.84765
   95  H   0.83246
   96  H   0.85495
   97  H   0.84818
   98  H   0.85500
   99  H   0.83190
  100  H   0.84842
  101  H   0.83184
  102  H   0.84822
  103  H   0.81166
  104  H   0.82958
  105  C   1.07793   0.97935   0.97591   1.07234
  106  C   1.03482   1.00423   1.03694   0.99532
  107  P   1.63062   1.08044   1.06526   1.30486   0.02799   0.04001   0.02364   0.03644   0.03319
  108  C   1.03726   0.96843   1.03796   1.02818
  109  C   1.07779   0.99217   0.98282   1.05667
  110  C   1.08768   1.00756   1.05941   1.01028
  111  C   1.09214   1.03151   0.97854   0.98609
  112  C   1.08859   0.99576   1.00787   1.06483
  113  C   1.08450   0.99635   1.04194   0.96684
  114  C   1.03846   1.01264   0.94140   1.09082
  115  C   1.07971   1.05318   0.98908   0.98640
  116  C   1.08785   1.06046   1.01734   0.99396
  117  C   1.09211   0.97901   1.07262   0.94944
  118  C   1.08816   1.07957   0.99209   0.99996
  119  C   1.08198   1.02997   1.02216   0.96308
  120  C   1.08394   0.99881   1.01568   0.97556
  121  C   1.08861   0.98775   0.98988   1.09083
  122  C   1.09251   0.99657   0.98396   1.00221
  123  C   1.08622   1.02592   1.04233   1.01828
  124  H   0.85746
  125  H   0.85135
  126  H   0.82809
  127  H   0.82350
  128  H   0.82285
  129  H   0.83279
  130  H   0.84051
  131  H   0.82797
  132  H   0.82621
  133  H   0.82552
  134  H   0.83558
  135  H   0.83473
  136  H   0.82013
  137  H   0.82415
  138  H   0.83307


                    (SZ)    =    2.000000
                    (S**2)  =    6.142716


          ATOMIC ORBITAL SPIN POPULATIONS

    Atom   Total    s     px     py     pz   x^2-y^2  xz     z^2    yz     xy
         Atomic
    1 Fe  0.1392 -0.001 -0.001 -0.001  0.000 -0.002  0.070  0.009  0.008  0.056
    2  O  0.0011  0.003 -0.001  0.000 -0.000
    3  H  0.0037  0.004
    4  H  0.0007  0.001
    5  C  0.3369  0.008  0.285  0.009  0.035
    6  N -0.2012 -0.012 -0.132 -0.016 -0.041
    7  C  0.7293  0.015  0.682  0.018  0.015
    8  C  0.1480  0.000  0.156  0.000 -0.009
    9  C -0.0313 -0.005 -0.005 -0.008 -0.013
   10  C  0.7883  0.021  0.715  0.026  0.026
   11  C -0.0386 -0.005 -0.006 -0.023 -0.005
   12  C  0.0281  0.005  0.011  0.005  0.006
   13  C  0.0295  0.005  0.014  0.005  0.005
   14  C  0.0018  0.000  0.000  0.000  0.001
   15  C -0.1690 -0.009 -0.129 -0.014 -0.017
   16  C  0.3162  0.005  0.308  0.006 -0.002
   17  H -0.0051 -0.005
   18  H  0.0002  0.000
   19  H -0.0011 -0.001
   20  H  0.0004  0.000
   21  H -0.0008 -0.001
   22  H -0.0011 -0.001
   23  H -0.0008 -0.001
   24  H  0.0005  0.000
   25  H -0.0002 -0.000
   26  H -0.0006 -0.001
   27  H -0.0002 -0.000
   28  H  0.0042  0.004
   29  H -0.0098 -0.010
   30  C  0.3553  0.009  0.009  0.040  0.296
   31  N -0.2080 -0.012 -0.016 -0.039 -0.141
   32  C  0.7069  0.014  0.025  0.023  0.644
   33  C  0.1675  0.001  0.001 -0.003  0.168
   34  C -0.0503 -0.006 -0.008 -0.014 -0.022
   35  C  0.7774  0.021  0.027  0.036  0.694
   36  C -0.0379 -0.005 -0.023 -0.004 -0.006
   37  C  0.0284  0.005  0.005  0.007  0.011
   38  C  0.0283  0.005  0.006  0.004  0.013
   39  C  0.0018  0.000  0.000  0.001  0.000
   40  C -0.1807 -0.009 -0.015 -0.018 -0.139
   41  C  0.3297  0.006  0.007  0.001  0.317
   42  H -0.0055 -0.006
   43  H  0.0009  0.001
   44  H -0.0011 -0.001
   45  H  0.0004  0.000
   46  H -0.0007 -0.001
   47  H -0.0011 -0.001
   48  H -0.0008 -0.001
   49  H  0.0004  0.000
   50  H -0.0002 -0.000
   51  H -0.0006 -0.001
   52  H -0.0002 -0.000
   53  H  0.0047  0.005
   54  H -0.0101 -0.010
   55  C -0.0144 -0.002 -0.007 -0.002 -0.004
   56  N  0.0246  0.001  0.018  0.001  0.005
   57  C -0.0041 -0.000 -0.000 -0.001 -0.002
   58  C  0.0032  0.000  0.000  0.000  0.002
   59  C -0.0022 -0.000 -0.000 -0.000 -0.002
   60  C  0.0026  0.000  0.000  0.000  0.002
   61  C -0.0001 -0.000 -0.000 -0.000 -0.000
   62  C  0.0001  0.000  0.000  0.000  0.000
   63  C  0.0001  0.000  0.000  0.000  0.000
   64  C  0.0000  0.000  0.000  0.000 -0.000
   65  C -0.0022 -0.000 -0.000 -0.000 -0.002
   66  C  0.0033  0.000  0.000  0.000  0.002
   67  H -0.0001 -0.000
   68  H  0.0001  0.000
   69  H -0.0000 -0.000
   70  H  0.0000  0.000
   71  H -0.0000 -0.000
   72  H -0.0000 -0.000
   73  H -0.0000 -0.000
   74  H -0.0000 -0.000
   75  H  0.0000  0.000
   76  H -0.0000 -0.000
   77  H -0.0000 -0.000
   78  H  0.0001  0.000
   79  H -0.0001 -0.000
   80  C -0.0248 -0.001 -0.002 -0.008 -0.014
   81  N  0.0442  0.002  0.002  0.010  0.030
   82  C -0.0085 -0.000 -0.002 -0.005 -0.001
   83  C  0.0072  0.000  0.001  0.005  0.001
   84  C -0.0050 -0.000 -0.000 -0.004 -0.000
   85  C  0.0059  0.000  0.000  0.005  0.000
   86  C -0.0003 -0.000 -0.000 -0.000 -0.000
   87  C  0.0002  0.000  0.000  0.000  0.000
   88  C  0.0002  0.000  0.000  0.000  0.000
   89  C  0.0000  0.000 -0.000 -0.000  0.000
   90  C -0.0050 -0.000 -0.000 -0.004 -0.000
   91  C  0.0069  0.000  0.001  0.005  0.001
   92  H -0.0002 -0.000
   93  H  0.0002  0.000
   94  H -0.0000 -0.000
   95  H -0.0000 -0.000
   96  H -0.0000 -0.000
   97  H -0.0000 -0.000
   98  H -0.0000 -0.000
   99  H -0.0000 -0.000
  100  H  0.0000  0.000
  101  H -0.0000 -0.000
  102  H  0.0000  0.000
  103  H  0.0002  0.000
  104  H -0.0002 -0.000
  105  C  0.0007  0.000  0.000  0.000  0.000
  106  C -0.0011 -0.000  0.000 -0.001 -0.000
  107  P -0.0017 -0.000 -0.000 -0.000 -0.001  0.000 -0.000  0.000 -0.000 -0.000
  108  C -0.0029 -0.000 -0.001 -0.000 -0.001
  109  C  0.0011  0.000  0.000  0.000  0.000
  110  C -0.0007 -0.000 -0.000 -0.000 -0.000
  111  C  0.0007  0.000  0.000  0.000  0.000
  112  C -0.0007 -0.000 -0.000 -0.000 -0.000
  113  C  0.0009  0.000  0.000  0.000  0.000
  114  C -0.0006 -0.000 -0.000 -0.000  0.000
  115  C -0.0002 -0.000 -0.000 -0.000 -0.000
  116  C  0.0001 -0.000  0.000  0.000  0.000
  117  C -0.0002 -0.000 -0.000 -0.000 -0.000
  118  C  0.0001  0.000  0.000  0.000  0.000
  119  C -0.0001  0.000 -0.000 -0.000 -0.000
  120  C  0.0000 -0.000  0.000  0.000 -0.000
  121  C -0.0003 -0.000 -0.000 -0.000 -0.000
  122  C  0.0003  0.000  0.000  0.000  0.000
  123  C -0.0001  0.000 -0.000 -0.000  0.000
  124  H -0.0002 -0.000
  125  H -0.0001 -0.000
  126  H  0.0000  0.000
  127  H -0.0000 -0.000
  128  H  0.0000  0.000
  129  H -0.0000 -0.000
  130  H  0.0000  0.000
  131  H -0.0000 -0.000
  132  H  0.0000  0.000
  133  H -0.0000 -0.000
  134  H  0.0000  0.000
  135  H -0.0000 -0.000
  136  H  0.0000  0.000
  137  H -0.0000 -0.000
  138  H  0.0000  0.000

 **********************
 *                    *
 * JOB ENDED NORMALLY *
 *                    *
 **********************



 TOTAL JOB TIME:           149.49 SECONDS

 == MOPAC DONE ==
