 *******************************************************************************
 ** Site#: 26130        For non-commercial use only     Version 16.299L 64BITS**
 *******************************************************************************
 ** Cite this program as: MOPAC2016, Version: 16.299L, James J. P. Stewart,   **
 ** Stewart Computational Chemistry, web: HTTP://OpenMOPAC.net. Days left: 350**
 *******************************************************************************
 **                                                                           **
 **                                MOPAC2016                                  **
 **                                                                           **
 *******************************************************************************

                              PM7 CALCULATION RESULTS


 *******************************************************************************
 *  CALCULATION DONE:                                Thu Nov 10 16:00:37 2016  *
 *  PM7        - The PM7 Hamiltonian to be used
 *  QUARTET    - SPIN STATE DEFINED AS A QUARTET
 *  UHF        - UNRESTRICTED HARTREE-FOCK CALCULATION
 *
 *
 *
 *                 CHARGE ON SYSTEM =    -3
 *
 *
 *
 *  XYZ        - CARTESIAN COORDINATE SYSTEM TO BE USED
 *  EF         - USE EF ROUTINE FOR MINIMUM SEARCH
 *  T=         - A TIME OF 172800.0 SECONDS REQUESTED
 *  DUMP=N     - RESTART FILE WRITTEN EVERY  7200.000 SECONDS
 *  HESSIAN    - WRITE OUT HESSIAN FROM GEOMERY OPTIMIZATION
 *******************************************************************************
 EF PM7 XYZ HESSIAN QUARTET UHF CHARGE=-3
 1006_C_0_4

   ATOM   CHEMICAL          X               Y               Z
  NUMBER   SYMBOL      (ANGSTROMS)     (ANGSTROMS)     (ANGSTROMS)
 
     1      Co          0.00000000  *   0.00000000  *   0.00000000  *
     2       C          0.00000000  *   0.00000000  *   1.96000000  *
     3       H          0.59907900  *  -0.75660100  *   1.46533400  *
     4       O         -0.03774000  *   0.04766300  *   3.17797300  *
     5       N         -1.52028000  *   1.52028000  *   0.00000700  *
     6       C         -2.84833400  *   1.17068100  *  -0.18503900  *
     7       C         -1.17074000  *   2.84839300  *   0.18505300  *
     8       N         -0.87835300  *   3.95751200  *   0.33954000  *
     9       N         -3.95737900  *   0.87821800  *  -0.33969800  *
    10       N         -1.52028400  *  -1.52027500  *   0.00000200  *
    11       C         -1.58784100  *  -2.43117300  *   1.04206300  *
    12       C         -2.43124200  *  -1.58789200  *  -1.04205800  *
    13       N         -3.19180400  *  -1.64406100  *  -1.91262700  *
    14       N         -1.64382200  *  -3.19177500  *   1.91257200  *
    15       N          1.52027500  *  -1.52028400  *   0.00000200  *
    16       C          2.44067900  *  -1.57833600  *   1.03425400  *
    17       C          1.57838600  *  -2.44074700  *  -1.03424900  *
    18       N          1.62661500  *  -3.20925100  *  -1.89829600  *
    19       N          3.20922100  *  -1.62637600  *   1.89823900  *
    20       N          1.52027800  *   1.52028100  *   0.00000600  *
    21       C          1.27449900  *   2.74451500  *  -0.60085400  *
    22       C          2.74457100  *   1.27456200  *   0.60086700  *
    23       N          3.76698400  *   1.06888100  *   1.10273100  *
    24       N          1.06878600  *   3.76681000  *  -1.10287900  *
 


          CARTESIAN COORDINATES 

    NO.       ATOM         X         Y         Z

     1        Co        0.0000    0.0000    0.0000
     2         C        0.0000    0.0000    1.9600
     3         H        0.5991   -0.7566    1.4653
     4         O       -0.0377    0.0477    3.1780
     5         N       -1.5203    1.5203    0.0000
     6         C       -2.8483    1.1707   -0.1850
     7         C       -1.1707    2.8484    0.1851
     8         N       -0.8784    3.9575    0.3395
     9         N       -3.9574    0.8782   -0.3397
    10         N       -1.5203   -1.5203    0.0000
    11         C       -1.5878   -2.4312    1.0421
    12         C       -2.4312   -1.5879   -1.0421
    13         N       -3.1918   -1.6441   -1.9126
    14         N       -1.6438   -3.1918    1.9126
    15         N        1.5203   -1.5203    0.0000
    16         C        2.4407   -1.5783    1.0343
    17         C        1.5784   -2.4407   -1.0342
    18         N        1.6266   -3.2093   -1.8983
    19         N        3.2092   -1.6264    1.8982
    20         N        1.5203    1.5203    0.0000
    21         C        1.2745    2.7445   -0.6009
    22         C        2.7446    1.2746    0.6009
    23         N        3.7670    1.0689    1.1027
    24         N        1.0688    3.7668   -1.1029

 General Reference for PM7:
 "Optimization of Parameters for Semiempirical Methods VI: More Modifications to the 
 NDDO Approximations and Re-optimization of Parameters", J. J. P. Stewart, J. Mol. Mod., 1:32, 19 (2013)
 http://www.springerlink.com/openurl.asp?genre=article&id=doi:10.1007/s00894-012-1667-x

           Empirical Formula: C9 H N12 O Co  =    24 atoms



      MOLECULAR POINT GROUP   :   C1  


 QUARTET STATE CALCULATION


          UHF CALCULATION, NO. OF ALPHA ELECTRONS =   59
                           NO. OF BETA  ELECTRONS =   56

          Geometry optimization using EF

          DIAGONAL MATRIX USED AS START HESSIAN

 CYCLE:     1 TIME:   0.559 TIME LEFT:  2.00D  GRAD.:   324.384 HEAT:  381.6156
 CYCLE:     2 TIME:   0.055 TIME LEFT:  2.00D  GRAD.:   266.777 HEAT:  369.6320
 CYCLE:     3 TIME:   0.020 TIME LEFT:  2.00D  GRAD.:   126.975 HEAT:  352.9420
 CYCLE:     4 TIME:   0.027 TIME LEFT:  2.00D  GRAD.:   154.854 HEAT:  340.2527
 CYCLE:     5 TIME:   0.027 TIME LEFT:  2.00D  GRAD.:   287.814 HEAT:  330.6527
 CYCLE:     6 TIME:   0.023 TIME LEFT:  2.00D  GRAD.:   283.062 HEAT:  323.8712
 CYCLE:     7 TIME:   0.051 TIME LEFT:  2.00D  GRAD.:   234.654 HEAT:  314.6566
 CYCLE:     8 TIME:   0.027 TIME LEFT:  2.00D  GRAD.:   260.566 HEAT:  314.1239
 CYCLE:     9 TIME:   0.027 TIME LEFT:  2.00D  GRAD.:   300.521 HEAT:  311.6744
 CYCLE:    10 TIME:   0.023 TIME LEFT:  2.00D  GRAD.:   179.997 HEAT:  304.2517
 CYCLE:    11 TIME:   0.027 TIME LEFT:  2.00D  GRAD.:   214.259 HEAT:  301.3709
 CYCLE:    12 TIME:   0.047 TIME LEFT:  2.00D  GRAD.:   132.586 HEAT:  298.0983
 CYCLE:    13 TIME:   0.023 TIME LEFT:  2.00D  GRAD.:   103.874 HEAT:  295.9053
 CYCLE:    14 TIME:   0.031 TIME LEFT:  2.00D  GRAD.:   120.057 HEAT:  293.5998
 CYCLE:    15 TIME:   0.055 TIME LEFT:  2.00D  GRAD.:   154.582 HEAT:  293.0364
 CYCLE:    16 TIME:   0.023 TIME LEFT:  2.00D  GRAD.:    47.245 HEAT:  289.8637
 CYCLE:    17 TIME:   0.035 TIME LEFT:  2.00D  GRAD.:   148.783 HEAT:  289.4192
 CYCLE:    18 TIME:   0.031 TIME LEFT:  2.00D  GRAD.:   165.152 HEAT:  287.0981
 CYCLE:    19 TIME:   0.078 TIME LEFT:  2.00D  GRAD.:   108.640 HEAT:  285.5205
 CYCLE:    20 TIME:   0.039 TIME LEFT:  2.00D  GRAD.:    69.034 HEAT:  283.9370
 CYCLE:    21 TIME:   0.047 TIME LEFT:  2.00D  GRAD.:    68.907 HEAT:  282.5877
 CYCLE:    22 TIME:   0.094 TIME LEFT:  2.00D  GRAD.:    87.404 HEAT:  282.4909
 CYCLE:    23 TIME:   0.023 TIME LEFT:  2.00D  GRAD.:    56.825 HEAT:  281.8858
 CYCLE:    24 TIME:   0.023 TIME LEFT:  2.00D  GRAD.:    29.620 HEAT:  281.3001
 CYCLE:    25 TIME:   0.023 TIME LEFT:  2.00D  GRAD.:    26.331 HEAT:  280.7205
 CYCLE:    26 TIME:   0.027 TIME LEFT:  2.00D  GRAD.:   112.468 HEAT:  280.6822
 CYCLE:    27 TIME:   0.023 TIME LEFT:  2.00D  GRAD.:    22.989 HEAT:  278.8503
 CYCLE:    28 TIME:   0.023 TIME LEFT:  2.00D  GRAD.:    56.696 HEAT:  278.0758
 CYCLE:    29 TIME:   0.031 TIME LEFT:  2.00D  GRAD.:    55.649 HEAT:  276.4521
 CYCLE:    30 TIME:   0.102 TIME LEFT:  2.00D  GRAD.:    27.455 HEAT:  275.7923
 CYCLE:    31 TIME:   0.020 TIME LEFT:  2.00D  GRAD.:    21.514 HEAT:  275.3391
 CYCLE:    32 TIME:   0.027 TIME LEFT:  2.00D  GRAD.:    47.409 HEAT:  275.1498
 CYCLE:    33 TIME:   0.023 TIME LEFT:  2.00D  GRAD.:    40.231 HEAT:  274.4688
 CYCLE:    34 TIME:   0.027 TIME LEFT:  2.00D  GRAD.:    56.213 HEAT:  274.2784
 CYCLE:    35 TIME:   0.023 TIME LEFT:  2.00D  GRAD.:    41.089 HEAT:  273.1738
 CYCLE:    36 TIME:   0.027 TIME LEFT:  2.00D  GRAD.:    74.503 HEAT:  273.0391
 CYCLE:    37 TIME:   0.023 TIME LEFT:  2.00D  GRAD.:    70.076 HEAT:  272.0546
 CYCLE:    38 TIME:   0.074 TIME LEFT:  2.00D  GRAD.:    62.260 HEAT:  271.4191
 CYCLE:    39 TIME:   0.027 TIME LEFT:  2.00D  GRAD.:    29.894 HEAT:  270.8123
 CYCLE:    40 TIME:   0.043 TIME LEFT:  2.00D  GRAD.:    33.121 HEAT:  270.6104
 CYCLE:    41 TIME:   0.023 TIME LEFT:  2.00D  GRAD.:    13.374 HEAT:  270.2166
 CYCLE:    42 TIME:   0.023 TIME LEFT:  2.00D  GRAD.:    13.839 HEAT:  269.7344
 CYCLE:    43 TIME:   0.027 TIME LEFT:  2.00D  GRAD.:    20.772 HEAT:  268.8084
 CYCLE:    44 TIME:   0.027 TIME LEFT:  2.00D  GRAD.:    23.231 HEAT:  266.9143
 CYCLE:    45 TIME:   0.031 TIME LEFT:  2.00D  GRAD.:    31.287 HEAT:  264.2794
 CYCLE:    46 TIME:   0.031 TIME LEFT:  2.00D  GRAD.:    51.419 HEAT:  262.5292
 CYCLE:    47 TIME:   0.031 TIME LEFT:  2.00D  GRAD.:    65.811 HEAT:  261.2049
 CYCLE:    48 TIME:   0.027 TIME LEFT:  2.00D  GRAD.:    84.630 HEAT:  259.3106
 CYCLE:    49 TIME:   0.031 TIME LEFT:  2.00D  GRAD.:    69.537 HEAT:  258.0750
 CYCLE:    50 TIME:   0.027 TIME LEFT:  2.00D  GRAD.:    60.488 HEAT:  256.4795
 CYCLE:    51 TIME:   0.094 TIME LEFT:  2.00D  GRAD.:    48.229 HEAT:  256.0452
 CYCLE:    52 TIME:   0.027 TIME LEFT:  2.00D  GRAD.:    24.332 HEAT:  255.6782
 CYCLE:    53 TIME:   0.023 TIME LEFT:  2.00D  GRAD.:    16.301 HEAT:  255.3172
 CYCLE:    54 TIME:   0.020 TIME LEFT:  2.00D  GRAD.:    17.171 HEAT:  254.8398
 CYCLE:    55 TIME:   0.027 TIME LEFT:  2.00D  GRAD.:    28.518 HEAT:  254.1633
 CYCLE:    56 TIME:   0.023 TIME LEFT:  2.00D  GRAD.:    27.575 HEAT:  253.3266
 CYCLE:    57 TIME:   0.027 TIME LEFT:  2.00D  GRAD.:    41.028 HEAT:  252.2016
 CYCLE:    58 TIME:   0.027 TIME LEFT:  2.00D  GRAD.:    28.928 HEAT:  250.8591
 CYCLE:    59 TIME:   0.023 TIME LEFT:  2.00D  GRAD.:    42.663 HEAT:  249.5645
 CYCLE:    60 TIME:   0.027 TIME LEFT:  2.00D  GRAD.:    72.938 HEAT:  248.6252
 CYCLE:    61 TIME:   0.031 TIME LEFT:  2.00D  GRAD.:    57.008 HEAT:  246.8499
 CYCLE:    62 TIME:   0.027 TIME LEFT:  2.00D  GRAD.:    62.545 HEAT:  245.3711
 CYCLE:    63 TIME:   0.035 TIME LEFT:  2.00D  GRAD.:    86.992 HEAT:  243.8882
 CYCLE:    64 TIME:   0.027 TIME LEFT:  2.00D  GRAD.:    78.932 HEAT:  242.1778
 CYCLE:    65 TIME:   0.031 TIME LEFT:  2.00D  GRAD.:    78.084 HEAT:  240.4715
 CYCLE:    66 TIME:   0.031 TIME LEFT:  2.00D  GRAD.:    85.755 HEAT:  239.1510
 CYCLE:    67 TIME:   0.027 TIME LEFT:  2.00D  GRAD.:    58.736 HEAT:  237.2415
 CYCLE:    68 TIME:   0.031 TIME LEFT:  2.00D  GRAD.:    82.085 HEAT:  236.3610
 CYCLE:    69 TIME:   0.031 TIME LEFT:  2.00D  GRAD.:    69.160 HEAT:  234.7625
 CYCLE:    70 TIME:   0.027 TIME LEFT:  2.00D  GRAD.:    67.340 HEAT:  233.6401
 CYCLE:    71 TIME:   0.027 TIME LEFT:  2.00D  GRAD.:    35.749 HEAT:  231.8183
 CYCLE:    72 TIME:   0.031 TIME LEFT:  2.00D  GRAD.:    55.216 HEAT:  230.7971
 CYCLE:    73 TIME:   0.027 TIME LEFT:  2.00D  GRAD.:    52.488 HEAT:  229.6305
 CYCLE:    74 TIME:   0.027 TIME LEFT:  2.00D  GRAD.:    58.440 HEAT:  228.4269
 CYCLE:    75 TIME:   0.027 TIME LEFT:  2.00D  GRAD.:    47.604 HEAT:  227.2390
 CYCLE:    76 TIME:   0.027 TIME LEFT:  2.00D  GRAD.:    57.198 HEAT:  226.4026
 CYCLE:    77 TIME:   0.027 TIME LEFT:  2.00D  GRAD.:    35.196 HEAT:  225.0918
 CYCLE:    78 TIME:   0.031 TIME LEFT:  2.00D  GRAD.:    49.661 HEAT:  224.3750
 CYCLE:    79 TIME:   0.031 TIME LEFT:  2.00D  GRAD.:    60.858 HEAT:  223.5458
 CYCLE:    80 TIME:   0.027 TIME LEFT:  2.00D  GRAD.:    52.956 HEAT:  222.4120
 CYCLE:    81 TIME:   0.027 TIME LEFT:  2.00D  GRAD.:    56.604 HEAT:  221.6712
 CYCLE:    82 TIME:   0.027 TIME LEFT:  2.00D  GRAD.:    25.794 HEAT:  220.3956
 CYCLE:    83 TIME:   0.023 TIME LEFT:  2.00D  GRAD.:    28.059 HEAT:  219.4481
 CYCLE:    84 TIME:   0.031 TIME LEFT:  2.00D  GRAD.:    53.653 HEAT:  218.4573
 CYCLE:    85 TIME:   0.035 TIME LEFT:  2.00D  GRAD.:    47.252 HEAT:  217.4008
 CYCLE:    86 TIME:   0.039 TIME LEFT:  2.00D  GRAD.:    56.625 HEAT:  216.5672
 CYCLE:    87 TIME:   0.031 TIME LEFT:  2.00D  GRAD.:    25.310 HEAT:  215.5370
 CYCLE:    88 TIME:   0.023 TIME LEFT:  2.00D  GRAD.:    40.867 HEAT:  214.7182
 CYCLE:    89 TIME:   0.027 TIME LEFT:  2.00D  GRAD.:    36.555 HEAT:  213.9314
 CYCLE:    90 TIME:   0.031 TIME LEFT:  2.00D  GRAD.:    26.433 HEAT:  213.0944
 CYCLE:    91 TIME:   0.027 TIME LEFT:  2.00D  GRAD.:    32.010 HEAT:  212.2539
 CYCLE:    92 TIME:   0.027 TIME LEFT:  2.00D  GRAD.:    25.631 HEAT:  211.3798
 CYCLE:    93 TIME:   0.027 TIME LEFT:  2.00D  GRAD.:    21.186 HEAT:  210.5598
 CYCLE:    94 TIME:   0.027 TIME LEFT:  2.00D  GRAD.:    24.822 HEAT:  209.7710
 CYCLE:    95 TIME:   0.027 TIME LEFT:  2.00D  GRAD.:    28.894 HEAT:  208.9582
 CYCLE:    96 TIME:   0.027 TIME LEFT:  2.00D  GRAD.:    26.871 HEAT:  208.1486
 CYCLE:    97 TIME:   0.023 TIME LEFT:  2.00D  GRAD.:    25.768 HEAT:  207.3794
 CYCLE:    98 TIME:   0.027 TIME LEFT:  2.00D  GRAD.:    25.851 HEAT:  206.7113
 CYCLE:    99 TIME:   0.023 TIME LEFT:  2.00D  GRAD.:    16.910 HEAT:  206.0197
 CYCLE:   100 TIME:   0.027 TIME LEFT:  2.00D  GRAD.:    35.215 HEAT:  205.4618
 CYCLE:   101 TIME:   0.027 TIME LEFT:  2.00D  GRAD.:    19.105 HEAT:  204.8021
 CYCLE:   102 TIME:   0.027 TIME LEFT:  2.00D  GRAD.:    25.546 HEAT:  204.2901
 CYCLE:   103 TIME:   0.023 TIME LEFT:  2.00D  GRAD.:    12.719 HEAT:  203.7079
 CYCLE:   104 TIME:   0.027 TIME LEFT:  2.00D  GRAD.:    15.624 HEAT:  203.1810
 CYCLE:   105 TIME:   0.023 TIME LEFT:  2.00D  GRAD.:    13.058 HEAT:  202.6746
 CYCLE:   106 TIME:   0.027 TIME LEFT:  2.00D  GRAD.:     9.759 HEAT:  202.1641
 CYCLE:   107 TIME:   0.023 TIME LEFT:  2.00D  GRAD.:    13.094 HEAT:  201.6841
 CYCLE:   108 TIME:   0.023 TIME LEFT:  2.00D  GRAD.:    12.060 HEAT:  201.2040
 CYCLE:   109 TIME:   0.027 TIME LEFT:  2.00D  GRAD.:    20.046 HEAT:  200.7153
 CYCLE:   110 TIME:   0.027 TIME LEFT:  2.00D  GRAD.:    16.844 HEAT:  200.1767
 CYCLE:   111 TIME:   0.023 TIME LEFT:  2.00D  GRAD.:    25.219 HEAT:  199.6529
 CYCLE:   112 TIME:   0.027 TIME LEFT:  2.00D  GRAD.:    14.137 HEAT:  199.1359
 CYCLE:   113 TIME:   0.031 TIME LEFT:  2.00D  GRAD.:    17.144 HEAT:  198.6589
 CYCLE:   114 TIME:   0.031 TIME LEFT:  2.00D  GRAD.:    20.314 HEAT:  198.2249
 CYCLE:   115 TIME:   0.020 TIME LEFT:  2.00D  GRAD.:    17.210 HEAT:  197.7910
 CYCLE:   116 TIME:   0.023 TIME LEFT:  2.00D  GRAD.:    13.291 HEAT:  197.3457
 CYCLE:   117 TIME:   0.023 TIME LEFT:  2.00D  GRAD.:    15.945 HEAT:  196.9081
 CYCLE:   118 TIME:   0.023 TIME LEFT:  2.00D  GRAD.:    10.579 HEAT:  196.4928
 CYCLE:   119 TIME:   0.023 TIME LEFT:  2.00D  GRAD.:    12.769 HEAT:  196.1036
 CYCLE:   120 TIME:   0.023 TIME LEFT:  2.00D  GRAD.:    11.647 HEAT:  195.7076
 CYCLE:   121 TIME:   0.027 TIME LEFT:  2.00D  GRAD.:    21.080 HEAT:  195.3127
 CYCLE:   122 TIME:   0.023 TIME LEFT:  2.00D  GRAD.:    16.980 HEAT:  194.8987
 CYCLE:   123 TIME:   0.023 TIME LEFT:  2.00D  GRAD.:    12.203 HEAT:  194.5185
 CYCLE:   124 TIME:   0.031 TIME LEFT:  2.00D  GRAD.:    18.079 HEAT:  194.1709
 CYCLE:   125 TIME:   0.035 TIME LEFT:  2.00D  GRAD.:    20.359 HEAT:  193.7984
 CYCLE:   126 TIME:   0.031 TIME LEFT:  2.00D  GRAD.:    12.543 HEAT:  193.4584
 CYCLE:   127 TIME:   0.035 TIME LEFT:  2.00D  GRAD.:    12.892 HEAT:  193.1167
 CYCLE:   128 TIME:   0.031 TIME LEFT:  2.00D  GRAD.:    23.387 HEAT:  192.8103
 CYCLE:   129 TIME:   0.031 TIME LEFT:  2.00D  GRAD.:    13.736 HEAT:  192.4530
 CYCLE:   130 TIME:   0.031 TIME LEFT:  2.00D  GRAD.:    12.936 HEAT:  192.1311
 CYCLE:   131 TIME:   0.031 TIME LEFT:  2.00D  GRAD.:    12.188 HEAT:  191.8042
 CYCLE:   132 TIME:   0.023 TIME LEFT:  2.00D  GRAD.:    10.133 HEAT:  191.4761
 CYCLE:   133 TIME:   0.020 TIME LEFT:  2.00D  GRAD.:     9.475 HEAT:  191.1445
 CYCLE:   134 TIME:   0.027 TIME LEFT:  2.00D  GRAD.:    11.538 HEAT:  190.8203
 CYCLE:   135 TIME:   0.023 TIME LEFT:  2.00D  GRAD.:    15.746 HEAT:  190.5050
 CYCLE:   136 TIME:   0.027 TIME LEFT:  2.00D  GRAD.:    10.674 HEAT:  190.1864
 CYCLE:   137 TIME:   0.023 TIME LEFT:  2.00D  GRAD.:    11.349 HEAT:  189.8809
 CYCLE:   138 TIME:   0.023 TIME LEFT:  2.00D  GRAD.:     9.105 HEAT:  189.5836
 CYCLE:   139 TIME:   0.023 TIME LEFT:  2.00D  GRAD.:    14.096 HEAT:  189.2995
 CYCLE:   140 TIME:   0.023 TIME LEFT:  2.00D  GRAD.:    10.940 HEAT:  189.0137
 CYCLE:   141 TIME:   0.023 TIME LEFT:  2.00D  GRAD.:    18.781 HEAT:  188.7267
 CYCLE:   142 TIME:   0.023 TIME LEFT:  2.00D  GRAD.:    16.117 HEAT:  188.4346
 CYCLE:   143 TIME:   0.023 TIME LEFT:  2.00D  GRAD.:    11.695 HEAT:  188.1405
 CYCLE:   144 TIME:   0.023 TIME LEFT:  2.00D  GRAD.:    18.043 HEAT:  187.8760
 CYCLE:   145 TIME:   0.023 TIME LEFT:  2.00D  GRAD.:    13.491 HEAT:  187.5988
 CYCLE:   146 TIME:   0.023 TIME LEFT:  2.00D  GRAD.:     8.466 HEAT:  187.3082
 CYCLE:   147 TIME:   0.023 TIME LEFT:  2.00D  GRAD.:     9.912 HEAT:  187.0473
 CYCLE:   148 TIME:   0.027 TIME LEFT:  2.00D  GRAD.:    23.510 HEAT:  186.8436
 CYCLE:   149 TIME:   0.023 TIME LEFT:  2.00D  GRAD.:    17.127 HEAT:  186.6087
 CYCLE:   150 TIME:   0.023 TIME LEFT:  2.00D  GRAD.:    15.797 HEAT:  186.3859
 CYCLE:   151 TIME:   0.023 TIME LEFT:  2.00D  GRAD.:    11.566 HEAT:  186.1485
 CYCLE:   152 TIME:   0.023 TIME LEFT:  2.00D  GRAD.:     9.573 HEAT:  185.9184
 CYCLE:   153 TIME:   0.023 TIME LEFT:  2.00D  GRAD.:     8.790 HEAT:  185.6929
 CYCLE:   154 TIME:   0.023 TIME LEFT:  2.00D  GRAD.:     8.795 HEAT:  185.4646
 CYCLE:   155 TIME:   0.023 TIME LEFT:  2.00D  GRAD.:     8.502 HEAT:  185.2532
 CYCLE:   156 TIME:   0.023 TIME LEFT:  2.00D  GRAD.:    14.796 HEAT:  185.0547
 CYCLE:   157 TIME:   0.023 TIME LEFT:  2.00D  GRAD.:     9.732 HEAT:  184.8335
 CYCLE:   158 TIME:   0.023 TIME LEFT:  2.00D  GRAD.:     7.389 HEAT:  184.6271
 CYCLE:   159 TIME:   0.023 TIME LEFT:  2.00D  GRAD.:     7.609 HEAT:  184.4296
 CYCLE:   160 TIME:   0.023 TIME LEFT:  2.00D  GRAD.:     5.653 HEAT:  184.2431
 CYCLE:   161 TIME:   0.023 TIME LEFT:  2.00D  GRAD.:     9.367 HEAT:  184.0600
 CYCLE:   162 TIME:   0.031 TIME LEFT:  2.00D  GRAD.:    10.675 HEAT:  183.8772
 CYCLE:   163 TIME:   0.031 TIME LEFT:  2.00D  GRAD.:     5.693 HEAT:  183.6947
 CYCLE:   164 TIME:   0.035 TIME LEFT:  2.00D  GRAD.:     9.479 HEAT:  183.5199
 CYCLE:   165 TIME:   0.031 TIME LEFT:  2.00D  GRAD.:    11.854 HEAT:  183.3581
 CYCLE:   166 TIME:   0.031 TIME LEFT:  2.00D  GRAD.:    10.065 HEAT:  183.1906
 CYCLE:   167 TIME:   0.031 TIME LEFT:  2.00D  GRAD.:     8.064 HEAT:  183.0205
 CYCLE:   168 TIME:   0.035 TIME LEFT:  2.00D  GRAD.:    13.373 HEAT:  182.8493
 CYCLE:   169 TIME:   0.031 TIME LEFT:  2.00D  GRAD.:    10.313 HEAT:  182.6800
 CYCLE:   170 TIME:   0.031 TIME LEFT:  2.00D  GRAD.:     7.211 HEAT:  182.5066
 CYCLE:   171 TIME:   0.035 TIME LEFT:  2.00D  GRAD.:     4.932 HEAT:  182.3427
 CYCLE:   172 TIME:   0.027 TIME LEFT:  2.00D  GRAD.:     5.264 HEAT:  182.1779
 CYCLE:   173 TIME:   0.027 TIME LEFT:  2.00D  GRAD.:     3.843 HEAT:  182.1677
 CYCLE:   174 TIME:   0.070 TIME LEFT:  2.00D  GRAD.:     5.721 HEAT:  182.1370
 CYCLE:   175 TIME:   0.031 TIME LEFT:  2.00D  GRAD.:     3.865 HEAT:  182.1263
 CYCLE:   176 TIME:   0.027 TIME LEFT:  2.00D  GRAD.:     4.080 HEAT:  182.1175
 CYCLE:   177 TIME:   0.031 TIME LEFT:  2.00D  GRAD.:     2.705 HEAT:  182.1131
 CYCLE:   178 TIME:   0.027 TIME LEFT:  2.00D  GRAD.:     2.738 HEAT:  182.1080
 CYCLE:   179 TIME:   0.035 TIME LEFT:  2.00D  GRAD.:     4.190 HEAT:  182.1007
 CYCLE:   180 TIME:   0.027 TIME LEFT:  2.00D  GRAD.:     2.665 HEAT:  182.0945
 CYCLE:   181 TIME:   0.031 TIME LEFT:  2.00D  GRAD.:     6.151 HEAT:  182.0832
 CYCLE:   182 TIME:   0.031 TIME LEFT:  2.00D  GRAD.:     4.675 HEAT:  182.0753
 CYCLE:   183 TIME:   0.035 TIME LEFT:  2.00D  GRAD.:    16.707 HEAT:  182.0523
 CYCLE:   184 TIME:   0.031 TIME LEFT:  2.00D  GRAD.:     4.578 HEAT:  182.0015
 CYCLE:   185 TIME:   0.031 TIME LEFT:  2.00D  GRAD.:     4.685 HEAT:  181.9932
 CYCLE:   186 TIME:   0.027 TIME LEFT:  2.00D  GRAD.:     4.265 HEAT:  181.9836
 CYCLE:   187 TIME:   0.035 TIME LEFT:  2.00D  GRAD.:     8.744 HEAT:  181.9247
 CYCLE:   188 TIME:   0.027 TIME LEFT:  2.00D  GRAD.:     4.792 HEAT:  181.9164
 CYCLE:   189 TIME:   0.031 TIME LEFT:  2.00D  GRAD.:     3.429 HEAT:  181.9141
 CYCLE:   190 TIME:   0.031 TIME LEFT:  2.00D  GRAD.:     2.443 HEAT:  181.9046
 CYCLE:   191 TIME:   0.035 TIME LEFT:  2.00D  GRAD.:     2.338 HEAT:  181.8988
 CYCLE:   192 TIME:   0.031 TIME LEFT:  2.00D  GRAD.:     5.734 HEAT:  181.8898
 CYCLE:   193 TIME:   0.035 TIME LEFT:  2.00D  GRAD.:     6.565 HEAT:  181.8868
 CYCLE:   194 TIME:   0.031 TIME LEFT:  2.00D  GRAD.:     3.870 HEAT:  181.8820
 CYCLE:   195 TIME:   0.027 TIME LEFT:  2.00D  GRAD.:     2.504 HEAT:  181.8750
 CYCLE:   196 TIME:   0.023 TIME LEFT:  2.00D  GRAD.:     1.890 HEAT:  181.8714
 CYCLE:   197 TIME:   0.027 TIME LEFT:  2.00D  GRAD.:     2.478 HEAT:  181.8687
 CYCLE:   198 TIME:   0.023 TIME LEFT:  2.00D  GRAD.:     2.875 HEAT:  181.8630
 CYCLE:   199 TIME:   0.023 TIME LEFT:  2.00D  GRAD.:     4.431 HEAT:  181.8557
 CYCLE:   200 TIME:   0.023 TIME LEFT:  2.00D  GRAD.:     3.666 HEAT:  181.8495
 CYCLE:   201 TIME:   0.125 TIME LEFT:  2.00D  GRAD.:     5.689 HEAT:  181.8493
 CYCLE:   202 TIME:   0.020 TIME LEFT:  2.00D  GRAD.:     2.303 HEAT:  181.8459
 CYCLE:   203 TIME:   0.023 TIME LEFT:  2.00D  GRAD.:     1.849 HEAT:  181.8439
 CYCLE:   204 TIME:   0.023 TIME LEFT:  2.00D  GRAD.:     8.804 HEAT:  181.8327
 CYCLE:   205 TIME:   0.023 TIME LEFT:  2.00D  GRAD.:     3.133 HEAT:  181.7899
 CYCLE:   206 TIME:   0.023 TIME LEFT:  2.00D  GRAD.:     7.133 HEAT:  181.7611
 CYCLE:   207 TIME:   0.023 TIME LEFT:  2.00D  GRAD.:     4.132 HEAT:  181.7397
 CYCLE:   208 TIME:   0.043 TIME LEFT:  2.00D  GRAD.:     6.338 HEAT:  181.7328
 CYCLE:   209 TIME:   0.020 TIME LEFT:  2.00D  GRAD.:     2.247 HEAT:  181.7264
 CYCLE:   210 TIME:   0.023 TIME LEFT:  2.00D  GRAD.:     1.777 HEAT:  181.7251
 CYCLE:   211 TIME:   0.023 TIME LEFT:  2.00D  GRAD.:     2.062 HEAT:  181.7248
 CYCLE:   212 TIME:   0.020 TIME LEFT:  2.00D  GRAD.:     1.346 HEAT:  181.7229
 CYCLE:   213 TIME:   0.023 TIME LEFT:  2.00D  GRAD.:     1.265 HEAT:  181.7208
 CYCLE:   214 TIME:   0.027 TIME LEFT:  2.00D  GRAD.:     1.470 HEAT:  181.7174
 CYCLE:   215 TIME:   0.023 TIME LEFT:  2.00D  GRAD.:     1.992 HEAT:  181.6862
 CYCLE:   216 TIME:   0.027 TIME LEFT:  2.00D  GRAD.:     3.338 HEAT:  181.6836
 CYCLE:   217 TIME:   0.023 TIME LEFT:  2.00D  GRAD.:     2.132 HEAT:  181.6815
 CYCLE:   218 TIME:   0.023 TIME LEFT:  2.00D  GRAD.:     1.683 HEAT:  181.6795
 CYCLE:   219 TIME:   0.023 TIME LEFT:  2.00D  GRAD.:     1.530 HEAT:  181.6776
 CYCLE:   220 TIME:   0.031 TIME LEFT:  2.00D  GRAD.:     3.318 HEAT:  181.6767
 CYCLE:   221 TIME:   0.023 TIME LEFT:  2.00D  GRAD.:     1.595 HEAT:  181.6726
 CYCLE:   222 TIME:   0.023 TIME LEFT:  2.00D  GRAD.:     1.640 HEAT:  181.6710
 CYCLE:   223 TIME:   0.027 TIME LEFT:  2.00D  GRAD.:     1.261 HEAT:  181.6684
 CYCLE:   224 TIME:   0.027 TIME LEFT:  2.00D  GRAD.:     1.335 HEAT:  181.6670
 CYCLE:   225 TIME:   0.027 TIME LEFT:  2.00D  GRAD.:     8.322 HEAT:  181.6272
 CYCLE:   226 TIME:   0.051 TIME LEFT:  2.00D  GRAD.:     4.369 HEAT:  181.5983
 CYCLE:   227 TIME:   0.027 TIME LEFT:  2.00D  GRAD.:     8.155 HEAT:  181.5701
 CYCLE:   228 TIME:   0.020 TIME LEFT:  2.00D  GRAD.:     1.740 HEAT:  181.5470
 CYCLE:   229 TIME:   0.031 TIME LEFT:  2.00D  GRAD.:     1.647 HEAT:  181.5463
 CYCLE:   230 TIME:   0.031 TIME LEFT:  2.00D  GRAD.:     1.169 HEAT:  181.5448
 CYCLE:   231 TIME:   0.027 TIME LEFT:  2.00D  GRAD.:     1.884 HEAT:  181.5435
 CYCLE:   232 TIME:   0.020 TIME LEFT:  2.00D  GRAD.:     1.694 HEAT:  181.5428
 CYCLE:   233 TIME:   0.023 TIME LEFT:  2.00D  GRAD.:     1.701 HEAT:  181.5413
 CYCLE:   234 TIME:   0.023 TIME LEFT:  2.00D  GRAD.:     1.222 HEAT:  181.5403
 CYCLE:   235 TIME:   0.027 TIME LEFT:  2.00D  GRAD.:     1.536 HEAT:  181.5394
 CYCLE:   236 TIME:   0.020 TIME LEFT:  2.00D  GRAD.:     1.205 HEAT:  181.5385
 CYCLE:   237 TIME:   0.023 TIME LEFT:  2.00D  GRAD.:     1.129 HEAT:  181.5380
 CYCLE:   238 TIME:   0.023 TIME LEFT:  2.00D  GRAD.:     1.313 HEAT:  181.5377
 CYCLE:   239 TIME:   0.023 TIME LEFT:  2.00D  GRAD.:     1.677 HEAT:  181.5383
 CYCLE:   240 TIME:   0.023 TIME LEFT:  2.00D  GRAD.:     1.333 HEAT:  181.5369
 CYCLE:   241 TIME:   0.023 TIME LEFT:  2.00D  GRAD.:     1.414 HEAT:  181.5348
 CYCLE:   242 TIME:   0.027 TIME LEFT:  2.00D  GRAD.:     1.000 HEAT:  181.5338
 CYCLE:   243 TIME:   0.027 TIME LEFT:  2.00D  GRAD.:     1.161 HEAT:  181.5325
 CYCLE:   244 TIME:   0.023 TIME LEFT:  2.00D  GRAD.:     1.183 HEAT:  181.5314
 CYCLE:   245 TIME:   0.070 TIME LEFT:  2.00D  GRAD.:     6.125 HEAT:  181.5357
 CYCLE:   246 TIME:   0.020 TIME LEFT:  2.00D  GRAD.:     1.207 HEAT:  181.5013
 CYCLE:   247 TIME:   0.027 TIME LEFT:  2.00D  GRAD.:     3.318 HEAT:  181.5084
 CYCLE:   248 TIME:   0.023 TIME LEFT:  2.00D  GRAD.:     0.833 HEAT:  181.5012

     GRADIENT =  0.83344  IS LESS THAN CUTOFF =  1.00000



 -------------------------------------------------------------------------------
 EF PM7 XYZ HESSIAN QUARTET UHF CHARGE=-3
 1006_C_0_4



     GEOMETRY OPTIMISED USING EIGENVECTOR FOLLOWING (EF).     
     SCF FIELD WAS ACHIEVED                                   


                              PM7 CALCULATION
                                                       MOPAC2016 (Version: 16.299L)
                                                       Thu Nov 10 16:00:45 2016
                                                       No. of days remaining = 350




          FINAL HEAT OF FORMATION =        181.50089 KCAL/MOL =     759.39971 KJ/MOL


          TOTAL ENERGY            =      -4048.38732 EV
          ELECTRONIC ENERGY       =     -20522.42020 EV  POINT GROUP:     C1  
          CORE-CORE REPULSION     =      16474.03288 EV
          COSMO AREA              =        374.70 SQUARE ANGSTROMS
          COSMO VOLUME            =        393.28 CUBIC ANGSTROMS

          GRADIENT NORM           =          0.83344
          IONIZATION POTENTIAL    =          1.289642 EV
          ALPHA SOMO LUMO (EV)    =         -1.290  6.341
          BETA  SOMO LUMO (EV)    =         -1.978  6.341
          NO. OF ALPHA ELECTRONS  =         59
          NO. OF BETA  ELECTRONS  =         56
          MOLECULAR WEIGHT        =        352.1199

          MOLECULAR DIMENSIONS (Angstroms)

            Atom       Atom       Distance
            N    19    N     9    38.16962
            N    14    N    18     8.03380
            O     4    N    13     5.50493


          SCF CALCULATIONS        =        275
 
          WALL-CLOCK TIME         =          7.871 SECONDS
          COMPUTATION TIME        =         31.074 SECONDS




   ATOM   CHEMICAL          X               Y               Z
  NUMBER   SYMBOL      (ANGSTROMS)     (ANGSTROMS)     (ANGSTROMS)
 
     1      Co         -4.06573172  *   5.14253430  *   1.14391508  *
     2       C         -2.76469098  *   4.34033580  *   1.90835168  *
     3       H         -2.27137320  *   3.65953163  *   1.17016568  *
     4       O         -2.29905655  *   4.36643423  *   3.04145892  *
     5       N         -5.66876624  *   6.52117740  *   1.39641820  *
     6       C         -6.52940472  *   6.75106728  *   0.39028155  *
     7       C         -5.86942833  *   7.20023310  *   2.53626532  *
     8       N         -5.97863961  *   7.75047647  *   3.56178384  *
     9       N         -7.22854845  *   6.88602116  *  -0.53603880  *
    10       N         -5.37280274  *   3.42016163  *   0.83452787  *
    11       C         -6.45890879  *   3.22109679  *   1.60315922  *
    12       C         -5.20228107  *   2.55740193  *  -0.18131868  *
    13       N         -4.96649079  *   1.84133860  *  -1.07508822  *
    14       N         -7.36794571  *   3.10281832  *   2.32816861  *
    15       N         17.32690047  * -20.46610504  *  -1.46819610  *
    16       C         17.04643925  * -21.73838801  *  -1.24313439  *
    17       C         17.92768091  * -20.07797610  *  -2.58057213  *
    18       N         18.45326657  * -19.58822673  *  -3.50879515  *
    19       N         16.73723843  * -22.81960148  *  -0.90658399  *
    20       N         -2.90086051  *   6.42486196  *  -0.18959765  *
    21       C         -2.10823572  *   5.92828097  *  -1.15444625  *
    22       C         -2.91379341  *   7.76543925  *  -0.07198849  *
    23       N         -2.96507443  *   8.92020716  *   0.09978151  *
    24       N         -1.43753750  *   5.41066968  *  -1.96041949  *

                             CARTESIAN COORDINATES

   1   Co       -4.065731718     5.142534304     1.143915084
   2    C       -2.764690983     4.340335796     1.908351681
   3    H       -2.271373195     3.659531632     1.170165679
   4    O       -2.299056554     4.366434230     3.041458924
   5    N       -5.668766242     6.521177400     1.396418198
   6    C       -6.529404719     6.751067282     0.390281547
   7    C       -5.869428329     7.200233104     2.536265325
   8    N       -5.978639614     7.750476467     3.561783838
   9    N       -7.228548449     6.886021160    -0.536038800
  10    N       -5.372802735     3.420161626     0.834527870
  11    C       -6.458908787     3.221096786     1.603159220
  12    C       -5.202281073     2.557401934    -0.181318677
  13    N       -4.966490795     1.841338604    -1.075088223
  14    N       -7.367945713     3.102818321     2.328168613
  15    N       17.326900472   -20.466105040    -1.468196099
  16    C       17.046439249   -21.738388014    -1.243134388
  17    C       17.927680906   -20.077976095    -2.580572131
  18    N       18.453266575   -19.588226735    -3.508795153
  19    N       16.737238427   -22.819601477    -0.906583994
  20    N       -2.900860507     6.424861964    -0.189597653
  21    C       -2.108235720     5.928280974    -1.154446249
  22    C       -2.913793408     7.765439246    -0.071988492
  23    N       -2.965074431     8.920207158     0.099781509
  24    N       -1.437537502     5.410669676    -1.960419485


           Empirical Formula: C9 H N12 O Co  =    24 atoms

    Hessian matrix from geometry optimization
  348.3632
  -24.5623  285.7926
   47.1592  -86.0313  255.0168
 -129.8359  -63.0674    7.6589  824.0098
   49.4051  -60.9134   44.1702 -223.3299  610.9929
  -35.9139  -60.4063  102.5248  475.8306  253.8304 2702.7977
  -38.5825   31.2245  -14.0020 -233.1202  145.3987   78.2120  294.4599
   25.4358  -57.1806   45.9102  224.2164 -250.0765   86.2244 -207.4299  377.1537
   30.4402  -35.3768   43.2079  187.5487  -71.4269  -48.6680 -148.6501  227.0113  394.6492
  -47.4150   44.7259  -47.1009 -365.8482   71.6698 -306.5125   16.5029   -8.3445  -52.6828  449.7535
  -26.1237  -18.7342   -7.0170   11.7167 -195.4805 -244.5258    3.7346    3.3702 -100.9333  -56.3319
  232.3507
  -87.9235  173.2080 -337.4920 -573.3788 -258.9719-2668.4613   77.6430 -291.3572 -297.2762  344.9048
  352.3872 3334.1471
  -43.1343   59.3042  -90.4349 -159.8564   79.1959 -401.1566   70.0622  -56.2665  -65.2810  -29.2650
   13.3039  609.4686 1942.5653
  -10.0067  -99.2477  -12.8408   -9.2105  -18.4474  -84.3480    2.1173  -42.0517  -88.3998  -24.8164
   47.2807  134.4789   67.2697 1167.3511
   65.2294  -23.4051  -60.5505   44.5100   37.7632  117.3040    9.5244    2.3211   61.8618  -85.2217
  -75.2604 -157.2337  674.5996  581.9639 2365.8349
 -130.4605   44.8482   25.3678  174.7202 -214.6205   -1.4017   -3.8425  125.4051  152.9732 -205.4773
   56.3559   36.4113 -876.3410 -442.6697 -352.9766 4189.2458
   36.7251   23.7309  -37.8225    4.7961   -8.1416 -151.3753  -26.0257   -3.8237   79.6351  -83.5458
  -36.8196  131.4669   -9.9265 -401.4864  122.2250  732.1517  846.7655
 -130.6011   33.7459   40.0021  169.0871 -217.2418  183.5483   -1.6240  143.5132   80.5967  -58.7994
   36.2732 -122.1066 -453.7062  -78.2966 -711.2368 2711.7009  -31.7684 3553.4578
   10.0801    5.0261    0.7588   35.7560    9.5326  -20.1531   29.9061    7.7974   20.6150  -45.0419
  -45.7864   26.5643  -40.1345   38.2773  300.3159  200.2643   34.9977   20.4618  486.6644
   86.5278  134.2621 -113.9475  -51.5046   74.2060 -433.6056   29.4477  -25.0767   46.1140    0.1240
 -187.2962  627.0422  339.1788 -879.5263 -410.9741  662.8229  450.2187   75.7942    2.4859 3024.6059
   29.5534  128.7106 -100.7606 -129.4271   70.9935 -294.1811  -44.0799  -47.7126    3.5675  138.2508
 -122.5046  478.8565  301.5927 -488.9616 -808.2812   97.5916  124.8453 -190.7354 -403.7730 2561.4071
 3905.7195
  -64.7900   -8.4762   -1.0600   22.5478  -14.0071  114.9776  -13.9954   -4.2210    7.0909    6.8472
   10.6317 -113.6229  -74.2905  122.2334   -4.4076    3.5361  -13.8270   16.2842 -240.2819  -34.7832
  294.0228  258.8078
  -60.9280 -175.3937  145.2355  132.0574  -91.2088  402.1656   -3.2435   79.2755   34.7919  -91.6906
  189.3028 -580.7264 -196.1252   87.8693 -224.8540 -300.0899 -347.1980   73.4883   15.0786-2210.9320
-2081.4659  -97.0454 2349.1344
    0.1455 -148.4533  115.9979   87.2875  -77.7221  230.4132   26.4148  101.4766   -5.6753  -61.7133
   93.7831 -438.3847   63.3695 -195.1880 -246.8976  -97.2632 -178.8355   73.7019  337.0758-1819.4862
-2846.9677 -438.1448 2170.8924 3269.6388
   31.3814  -31.1942   26.6828  -81.7749  170.2797  338.2316   -3.9158 -117.4421 -149.5278  286.1679
  -84.9631 -458.1025 -844.3445  184.9423 -695.6458-3349.4206 -716.3985-2208.7642 -346.6564 -807.9588
 -190.6754  108.4002  434.4552   -8.2357 4511.3434
  -19.3851  -58.8246   50.4912   26.9053  -47.3837  173.0466  -15.8357   22.3386  -24.7824   77.3848
   -5.7802 -284.4086 -255.9794  127.2435  -90.7675 -555.2689 -463.1028  -12.1111  -69.4076 -380.5735
 -166.8266   58.2461  264.6140  139.7795  823.5143  518.1009
   26.3093    6.0423  -28.9687 -101.3141  192.9561  102.9399  -51.4817 -142.2752  -92.5708  151.8748
  -71.0464 -217.3338 -645.5079  182.5475 -480.7996-2303.8120  -61.5620-2575.6766 -246.7424 -385.6869
   38.1603  150.4558   41.1301 -223.4256 3078.2346  169.2538 3232.9736
  -98.3714  -35.8658   26.6844  121.6763  -66.0757  120.1820   26.7988   19.9691   15.7754  -68.7777
   25.4263 -146.7273  -83.1219   63.1138   90.0227  215.6197   -9.5523  142.5266   44.3013 -209.1551
 -175.0266   53.4958  176.1706  141.7784 -212.8780   42.2469 -123.6737 1127.6159
  -11.3721  -64.9217   42.2695   27.9703   -1.8390  131.3446   26.8454   37.3681   15.7145  -33.4831
   -0.8337 -123.8268   82.6427    7.7821  143.1218  116.9333   66.2015   -5.3343  -10.9561 -108.5951
  -98.5345   23.1866  102.9462   90.9950 -208.3897  -97.7123  -79.5705  164.3458 1041.2650
    7.1687  -22.2831  -70.5046  -26.6127   17.2099  -17.0422    7.3596   -4.1315   62.3688  -39.7469
  -26.9848  -33.1190  130.6680 -111.8487   17.4844 -109.2013   62.8257 -121.8863   48.9047  193.0297
   16.4399   -5.9360  -61.4790   30.8995   74.5370   22.2115   63.2007 -671.3805  317.2068 1697.8242
  -29.0214  -62.8784    4.9871  -32.1206   37.9094  128.7389   53.2021   45.0773   57.2384   10.5805
    4.6863 -294.4364  115.6842   54.2987   52.7691 -187.5258 -149.7908   77.9336  -60.3788  -44.4675
  -73.9948   36.2892   61.9441   64.9636   39.2460   60.0480  -95.1945 -620.3591 -230.5584  688.7808
 2888.5774
   70.2013   10.4684  -10.6880  -48.3436   64.0840   16.4073  -13.7831    9.9321   20.0138   52.8171
  -22.9112 -136.7822  106.2541 -138.1902  128.6431 -399.7535 -131.7594 -131.4933   54.2106  250.7310
   89.4432  -83.1782  -93.8807  -19.7169  195.2770   67.4884    3.5505 -227.0308 -479.2426  452.5517
 1005.4881 1560.5619
  -31.6532   23.3240    8.2824   12.6421  -46.5745  -78.3568   17.1723  -68.1856  -80.5198  -29.5112
   40.9732  291.2766 -177.8785   73.5464  -27.7317  452.1412  191.6944   75.2381   32.1704 -211.9838
 -170.2135   21.7149   72.7667   58.1864 -200.6718  -87.3849  -18.5035  429.5854  352.0216 -905.9715
-2640.4252-1526.8269 3474.4119
   11.0271   -7.3600  -17.8889   99.0413  -94.7970  -45.4708  -46.9846   10.9315   24.4098 -102.6034
    0.7507  -10.5915    5.5180   15.6350   62.6783  102.7750   86.2783  -27.7312   21.4663   25.2223
   12.3105  -14.1564  -30.6646   17.2069 -119.8271  -58.0721   19.3944 -140.6525   33.1940  111.9893
  -32.3489  166.1094  -76.3939  754.5473
 -103.6251  -60.1918    1.9809   -0.4560  -31.9928 -130.3785   16.2666  -56.9561  -69.3197   30.6564
   65.3338  225.5344   13.4609   91.8124 -119.7559  153.4514  -93.0061  222.2053  -37.7375   32.5887
  106.9725   50.7203   13.9785   -3.0227 -155.3989   34.6454 -141.9362   58.8400 -428.9676 -402.2938
  115.6232   -8.2957  -58.5656 -306.9180 1794.3891
  -77.1745  -50.6908  -20.1564  113.3732 -189.3488 -495.5708   -5.4475 -122.0602  -24.2145  -95.6189
   21.8020  526.6847  107.8769   29.2429   -5.3498  603.5162  261.1590  428.7126    5.1385  272.5674
  232.6948  -18.2377 -125.4009   37.7730 -582.5315 -161.5551 -369.0033  150.8320 -290.4030 -657.6368
  145.1201   42.0808 -306.5378  -85.2075 2063.8843 4848.4709
  -35.0831   -2.8273   14.4568  -52.9504   58.7107   43.5363   50.6427  -12.8169  -50.9154   61.3860
   51.7379   14.6870  -78.8593   -7.1860  -72.2228   68.4836  -76.4675   77.8511  -49.5617 -128.5755
 -108.3457  -31.4119  101.7129   74.5013   28.9805    4.6904 -110.9156  -15.1483    0.7379 -155.5635
  -40.2721 -234.4781  300.4107 -464.7163  239.8376 -113.8165  562.3979
   52.6977   24.5331  -20.5504  -23.9603   35.2214   18.6956  -37.5542   50.6207   58.8719   -1.7878
  -32.7485  -71.7945   30.6759 -108.1224   40.3024  -72.2566   76.7283 -136.3861   24.3876   17.2860
   -5.0938  -68.3718  -12.1697  -17.3137   27.0959  -63.6974   59.3587   17.5482 -113.6338 -100.5318
  -55.5938  100.5161  -97.9209  249.4130-1168.6964-1433.0309 -271.5108 1213.4493
   79.9701   79.2995  -55.5340 -166.7695  177.9444  174.6952  -39.9642   96.1667   21.7601  203.5318
    9.0971 -189.5312 -152.4363  -90.5594 -200.9623 -733.6033 -293.6209 -410.5823  -85.5959  -95.1683
   15.9770  -45.3275  -61.1517 -250.1682  818.7412  163.5994  407.7108 -225.8071 -529.9132 -279.3280
 -113.4671  -24.7952  130.8889 -132.7907-1661.8781-3887.8064  307.6455 1632.9600 4677.4139
  -15.4340   68.7120  -47.8269  -94.7988   28.3715 -254.4015  -14.8597 -105.2671  -78.5201   34.8593
   19.7162  444.0249   50.4032   31.1364  -92.9948   56.5371  144.7488  -74.1270    1.7185  173.2442
  220.2757   -6.5062 -298.0684 -300.3045  -62.2028 -111.9364  151.7079 -203.2073   39.9362  -80.4533
-1972.0710 -744.5059 1900.9137  -57.7300  -75.6375  -89.7493   56.0461   42.1420  261.6292 2141.1938
  -47.2319  -46.6931   23.0040   57.6902  -58.3990   49.0382  -25.1974    2.7017   25.2134  -36.4193
    2.6700   -4.6166 -242.1890   21.9382 -170.3572  247.7504   62.2046   85.2113  -21.8500 -188.3306
 -131.7617   59.6947  142.7246   53.3554   52.9831   47.0881   55.4971  -29.8761  128.7024 -201.1709
 -713.8656-1010.1959 1159.1219 -148.9234  -37.8867 -263.6938  240.7989  -47.4488  370.7971  626.8711
  909.0135
   25.7553  -20.0842   -2.9902   64.8875    0.1513  152.8735   13.5224   73.9930   65.3680  -28.3421
  -18.6612 -316.0388   83.2957    4.8713  131.7012 -174.7591 -144.8109    4.3149   -3.2575   26.8541
   -9.6459    3.6578   28.8240   74.9457  -16.1379   52.4093  -94.6628  192.9057  -30.2835  203.7348
 1815.6268  957.6028-2204.3045  145.5731   82.1010  188.7346 -215.0896  -14.8449 -377.2064-1825.4433
 -875.0866 2000.2952
   40.5335  -11.1122  -15.1146   -9.6606   56.7887  -58.7531   -6.1192  -14.1747   40.2477    2.4108
  -26.5943   18.5444  -25.9015 -197.3969    0.0909   79.1805  130.6946  -89.3356   46.5949  228.5981
   43.2851  -36.3811 -104.8066    1.1210  -97.7880  -76.0832   38.9922  -43.6257  -15.5686   34.3543
   -5.9521   79.1412  -43.2503   49.1929  -79.5566  122.5741  -83.8537   52.7027   -0.2324   64.9332
  -24.4957   28.2403  828.6775
    6.2349   16.2211   -3.1962 -120.3133   44.9192 -128.4045   30.5070  -93.0990  -97.0999  -13.7423
   -6.1427  267.1619   86.3768  130.2919   68.5570 -166.9444  -19.5846 -160.3973  -59.1243  125.3914
  218.8281   30.3762 -193.6060 -279.7361  165.0037    7.8650  117.5545   -2.5648   16.8628  -87.4790
 -166.3201 -106.4271  171.1827  -15.6082   87.1830   33.2512   14.6099   -4.4982  -94.9370  116.7678
  -20.3767 -200.3981   97.3218 1601.9064
   15.1971   41.8470  -13.1192   94.9458  -54.2168  -11.9292   46.1985    8.0194  -23.9045  -49.8045
  -28.4014   72.3245 -242.2212 -111.1893 -128.0354   47.1931  -47.7203  100.4067   34.7605  136.4350
  -22.1219  -43.9343  -47.6302    1.1836   85.3603   26.3340   65.4199   25.5460   41.3161 -165.1515
   12.7454    3.0089  -11.9228   71.2653   15.7811   83.2028  -46.2777  -31.2316 -131.1549  -45.7144
  -96.2821  158.6881   79.1095 -571.5281 2949.5036
  -24.8848   27.3827  -26.6750  -66.1072   53.4322 -164.5776   39.9617  -46.5305  -54.4167   60.5940
   67.5588  251.3051  249.7257  177.2246 -102.4170 -258.7361  -94.1011  -64.9505  -70.5105 -121.9606
   85.4059   72.7264   87.1605  -92.6947  143.1666  -43.9112  127.4240  -37.6075  -21.3306   30.9618
    9.0838  -66.1019   48.8199 -108.4351   52.0310  -16.4534   62.6508  -75.0844  127.3432   59.2520
  -18.5201  -68.2515 -111.8714  -82.2899   59.7037 1015.6054
   55.5984  128.5875   -6.9869 -180.9394   58.8403 -418.3420  -10.5650  -78.8690 -106.2452   81.3627
  -82.5238  523.2807   96.0974 -280.3100 -438.2353  -26.0734  150.4612   -2.7325   51.4506  789.2767
  484.3144 -208.3179 -623.8367 -162.2909   23.0208 -131.9637    3.2590 -320.5268  -63.2383   44.5184
  -82.3738  190.6192 -222.2816   28.3750  152.1430  360.3945  -12.5876  -39.9655 -128.7037  264.4584
 -147.0104  -30.6034  -86.7774 -677.6406  246.5642  564.3158 4078.7805
  -62.0897  -69.2858   -6.7602   31.5664    3.6762  130.1355   66.3641   22.9265  -38.0728   33.5126
  158.7280  -98.6796  163.6209  473.7001   76.9854 -309.7024 -258.5471  -51.0079 -164.0890 -808.4373
 -363.7488  224.9829  621.0326  146.5762  262.4266   65.7058  219.6664  156.8365   31.6144   -2.1753
   98.9527 -193.8559  202.7691 -123.3387  -19.5955 -256.1586   91.2494 -103.6201  209.3961 -158.2431
   63.8365  -16.0766   80.6024  100.9189    4.0959  587.7658-1950.4916 2571.4792
    2.7621   50.0666  -26.3331  -41.8244  -41.3937   26.4196  -27.0239  -28.7406  -56.0912   34.2163
   -2.1486   56.8917   64.0447  190.0644  -60.8653 -319.9196 -226.4743  -19.2047   -8.9132 -104.4462
   70.4187   10.5513   -3.4167  -80.2587  241.4061  126.1241   80.5474 -112.8162 -109.3156  -22.1757
   39.4631  -13.7314  -33.6564  -38.2314   40.2180 -160.1558   31.6490  -39.7207  215.3445   83.1920
   50.5847  -30.5659 -386.2249  -14.4977  504.9643  -24.1399  -71.7622   87.9149 1411.4085
   29.1736   19.3758  -12.0157  -43.6553   -8.0035  -17.3085  -31.9936  -17.0724  -14.6102    4.4443
  -12.3754   17.9914   -8.3576  103.8200  -93.7218 -267.4595 -168.5480  -23.0893  -34.5937 -185.2898
  -11.3934  -36.9239  137.7812   48.2906  242.0235  108.7790   67.2387  -99.5044  -89.7408  -49.2824
   98.0018   57.9133 -136.3918   27.0015  -54.6068  -99.1711   20.2146   58.7812  196.3769  -27.1453
    3.4017   55.6333 -109.9867 -116.1076  216.7219 -195.4291  -79.9459   -3.6967  875.5589 1187.2640
  -51.9448  -12.7907   -2.5747  -26.7170  -42.2375 -194.2947   14.8990  -50.1919  -99.5968  -96.7154
  133.5861  211.1545 -219.6538 -168.7247   33.8921  462.1812  276.7385   71.3359 -131.3766 -157.1872
 -187.1759  -26.7826  211.6743  141.9121 -281.8412 -137.6036 -127.3944  196.6036   98.7592 -114.7930
  -17.1737  186.4472  -89.7846   76.6979   16.1172  305.4434   97.1567   85.0865 -346.9794 -207.8038
 -283.1872  142.7204  436.6760  378.7757 -404.1425  -88.5269  281.2340 -292.6735-1759.8919-1236.1029
 4232.7192
  -44.0674  -14.6993   35.8997   24.3788   15.9722   66.5564   30.6805    6.9287   -4.2278  -23.5723
   -5.6700  -67.5989  -57.1392  -47.2576   37.0658  325.4336  120.2352  147.1645   -3.3230   40.3934
  -93.3902    6.3750   11.1852   75.5927 -264.1936  -83.3597 -135.4738  108.2677   68.5334  -40.5114
  -29.5431  -35.3953   68.9691   11.6937   31.9696   98.1255   16.3725  -14.1994 -174.3016  -81.4545
    0.4336   -2.4002  -41.5910   -9.0160   71.1286    1.2285   58.7209   18.5494 -835.6615 -598.5660
 1259.9814  878.9238
  -14.0402  -35.6005   11.0370   40.9319    5.6040   76.2101   12.8422   19.7134   28.0410   35.0274
    8.4177 -130.7307  -27.1055  -41.8081   28.8575  175.0582   62.1786   72.4138   16.9450   52.2689
  -68.0557   65.3190  -48.2680   14.7427  -86.3145  -22.5002  -32.1618   83.7084   35.1518   76.2104
  -64.7098  -51.8959  139.5444 -110.8885   95.9459   43.2056   15.5730 -101.8406 -105.4202   17.8605
   80.8123  -24.7572 -123.5280 -198.1896 -329.4852  124.4562  -36.1991  104.4668 -625.6660 -809.3669
  587.0705  533.1298 1024.5556
   99.5563  -31.2137   -3.4666    5.5325  110.0838  225.5955 -117.6425  100.0883  216.9742  170.9446
 -149.1560 -409.2943  430.2415   47.2034  132.7588 -318.5057  -95.0377 -134.8675  181.4164  234.1104
  217.6737    0.8744 -248.8754  -67.0630  -90.8786  -10.7240  -14.3772 -262.0751 -132.7101  282.4588
   25.2742  -98.2563   24.2208  -73.4575 -155.7762 -264.4539 -131.1746   18.0579  500.9560  292.5537
  349.7464 -165.0132   19.7610 -440.0209-1552.4955  113.4735 -287.9539  137.6823 1074.3803  772.8892
-3610.7499-1333.2191 -207.2531 5092.3934
  -19.8708  -12.8111   21.9348   64.4228  -83.9351  128.5817   -6.6603   31.0689   37.6046  -84.5078
  -35.8685 -200.0903 -183.5378 -109.7413   98.6318  208.2066   62.3610   60.5199   44.9495  -81.3770
 -123.4987  -38.7875   76.2063  116.8623  -87.2459   65.5595 -131.0799   70.7719   72.9461   15.9555
  -10.5797   22.0885  -41.3207   84.7438  -31.2870  -51.1474  -37.0007   71.3220 -198.1076 -125.7810
    7.9630   44.8004 -319.5234   21.5286 -619.8890 -824.1592 -340.2391 -793.5584  -65.0963  104.2409
  105.7792  -39.9915    0.2538   42.3006 1223.1951
  -22.6182 -168.4252   28.6150  305.5179 -106.1723  478.3657  -53.8268  219.4760  227.3155  -75.1188
   67.0273 -733.2851 -208.6669   57.9500  382.4689  145.9536  -40.1508   42.0074   15.5820 -734.1104
 -581.1993  147.1779  712.8316  375.1139 -143.8805  102.9168  -55.0257  286.1573   69.1080   33.4902
  192.9283  -78.8691   50.9831   47.8233 -286.0544 -342.9034  -46.6054   80.1183  207.5149 -349.2728
  125.5730  177.8656  254.9796 -691.0421  508.5678 -348.1068-3131.0590 1746.0020  -88.4332 -126.8472
 -185.2682  -38.3849    1.7098  345.7819   88.4005 3911.2279
    1.2330   51.4416   36.2966  -76.1579  -17.5063  -74.0167  -31.9257  -53.7367  -35.2486  -52.2046
 -136.3344   88.7322 -131.8983 -195.4161  -62.9513  146.7710  142.5394   20.7989   69.4457  536.3988
  329.3126 -129.6272 -520.4956 -205.3777  -18.7853   45.3941 -116.0686  -62.7085  -10.7972    6.8798
  -96.0057  121.6454 -150.7072   75.4891  159.2118  216.4470  -50.4499   14.4629 -385.3387   59.2941
  -81.0304  -69.6152 -561.0723  543.0705 -991.5629 -649.3157 1552.6943-2244.7369  -37.0803  141.1704
  315.7064   69.2381  -75.8814 -260.2210 1220.6342-2251.8826 3019.3523
  -26.5167   23.3299  -59.9861   32.2264  -83.8936 -474.7448   23.6713  -29.5829   25.2221   43.3959
   76.9482  542.0029   33.7133  -65.4603  129.3425 -231.6516    8.8953 -165.1808   24.5058  239.7640
   79.4309  -87.4471 -295.9449 -120.4234  150.4307   21.1534   34.2305  -49.5106  -17.2340   13.3157
  130.0118  164.0661 -218.7192   38.0838   23.2374  249.3162  -99.4686   67.5090 -134.3398  -53.2324
 -172.2211  182.0744   33.4503   81.4179 -101.1412   54.1790   30.0589   46.7216 -116.5300 -117.2539
  -21.0503   15.9397   39.9134  138.3607  -68.0685  -21.3070  -78.6566 1476.2455
   50.5162   31.5770  -90.8840 -133.5267  -21.4764 -286.0172  -17.1607  -71.5742  -31.6786  107.1750
    8.8119  366.9193  167.9571   -1.5183   79.9702 -352.9386  -39.1774 -177.5590   16.8295  348.8115
  360.6915  -62.4429 -412.1971 -354.4261  152.4638   41.2042   56.9589 -195.4651 -208.5923   55.8673
   32.6749  262.2467 -259.5638  -39.1228  148.8833  205.5172  -29.4014  -72.2826   69.9122  187.8778
 -178.7324   68.4053   13.0704  -71.0249   36.0578  -21.5825  349.9939 -277.7198  193.6599  136.8768
 -320.6449 -155.7239  -37.3328  344.8032  -53.5269 -332.7618  145.3591  134.9137 2031.5347
    7.5241   38.1442  -56.6009  123.0350  -59.5941 -208.9465   39.3416    2.0594   55.1712  -16.8472
   37.6746  293.2451   63.4731   21.8818   84.9618   52.1902   34.2854  -53.5120   47.3326  234.9674
  145.9472  -32.0110 -372.2359 -218.3471 -175.1282  -36.4224  -70.3688   62.8057   65.5819  -21.5109
  -75.1589  -44.8406  154.4925  -37.5737   82.4645   12.7279   -8.6160  -48.1774 -177.6545  -10.3434
   45.0861 -105.8543  -28.2317  101.4259   89.3334   71.4145  -41.3091  167.6637 -105.4536 -159.7280
 -239.2841   32.9140   58.4497   64.0784    4.2264  -25.0966  -23.1973  452.1752  328.1607 2597.7656
   23.2214  -24.7029   24.6533   12.5299   20.1885  131.1575   44.5631  -52.2508  -24.6992  -59.7127
   33.6862 -118.2403   -4.0185  118.1198   98.3563  -97.0302  -92.3412  -31.2071  -22.1689 -277.0877
 -156.0740   29.1509  239.2915   79.7517   48.6697   16.2410  -29.9252  -66.7957   98.1717   97.9023
   62.9718    4.2571  -19.6607   77.5000  -71.9161  -29.4122    1.5970  -34.4612 -109.7461  -22.1159
   27.7246   16.5518   -9.0074  -19.6382 -121.5510  -63.1720  -48.7149   26.7542   71.7147   96.4670
  -79.6084  -80.9677 -106.2420  164.8593  105.1199   39.0927  -10.8392 -424.7406  106.4873  291.3936
 1509.4993
  -18.4809   63.8231  -34.4175   21.0991  -99.4430 -359.0908   -4.5682  168.4751   59.8386   53.9727
  -24.9455  369.3305  136.0497 -182.3292  -27.3331  142.4799  162.2005   57.0558   98.7378  598.1891
  264.9298  -54.3308 -504.7023 -163.1907 -275.8276  -46.0539 -178.4210   86.4379  -51.6001  -86.7246
    4.5142   50.0417  -87.6289  -60.6586  -76.7032 -322.0578  -60.2750  118.7128  380.8526  -67.1706
 -157.4377  129.0887   28.2963   34.8993  191.9899  112.5089  100.9336   25.1288 -117.5022 -147.0098
  -87.0609   49.2308   28.2881  -74.5143 -114.8410   44.8011  -77.5895  587.5023 -207.1573  190.9482
-1198.4379 2278.0962
  -97.3416  -31.3889   27.3781  146.5563 -162.5550  320.0056 -191.4384   -5.1397  -20.4199  -81.2314
   44.8522 -328.7582 -161.1911 -105.5438 -143.8862  506.6075  -36.5592  530.9880  -44.7648 -132.9525
  -51.3927 -114.2804  232.5570  321.4203 -423.9850  -51.0036 -424.8426   49.5107 -164.4601  -62.8597
  268.2189  224.0427 -387.2774  267.5110  398.2627  868.1848   -2.9633 -109.6595 -785.9172 -359.3368
  -52.8103  309.9878  -52.4374 -173.3444  233.3449 -440.7399  159.9365 -637.2407  150.8913  265.0797
  629.9946   97.6351 -130.5752 -666.0056  261.1858 -187.8772  524.4293   13.6622 -362.5071 -674.6046
-1309.0147   61.4484 4863.5408
    6.9740  -29.2444   34.3951 -154.1490  142.2602  302.2714   19.9550   26.1525  -23.1668  -10.6471
  -12.2516 -102.8740 -103.3250   -0.6882 -420.1477    0.2636  -28.6337  -43.4389  -17.2558   97.6222
  107.0786   -4.8271 -118.7771  -96.5985  434.3708   35.2793  252.5780   48.2621    5.8733  371.8084
  -24.6627  142.2569 -143.0713   68.3880   -0.3600  -41.8853 -207.6536   21.0067 -341.1699  175.5514
 -105.1341  110.5830   19.9521 -104.5093   77.8081 -265.1188  430.0737 -465.4875  246.1650  196.9932
 -330.1023  -67.8932   37.3799  216.3773    4.1418 -541.6784  426.6277 -739.8013 -141.4547 -748.4519
  -73.8152 -495.5690  880.7694 3824.2650
 -163.5504 -195.9525  220.2518  349.5128   38.9160  750.5709   80.2247  151.0621  150.4931 -178.9094
    6.1537 -924.2514 -421.7287 -164.4837 -153.3050  556.3497   94.9310  359.0971    0.5925 -300.9504
 -333.5135   97.1030  507.5192  324.0600 -109.9224   25.3364  -95.7728  308.6491  167.7481   18.1993
   36.8835   -2.3761   -5.9933  161.4692  -21.5273  153.3146 -137.0682  -34.8957 -470.2537 -106.0794
   37.3210   50.6448   27.4920 -166.5595  -97.5179 -153.0617 -258.7953    2.9349 -352.7978 -259.8568
  103.0866  292.2668  265.1557  -23.9590  101.6702  405.2055   53.1726 -443.8402-1346.7158 -238.3368
  144.1530 -305.7573   62.5989  905.6665 5214.6117
  -38.0853  -18.1564   56.7020  -87.8674   88.1157  316.3008   53.2453   14.1739  -42.6874  -29.0122
   27.0944 -163.4269 -136.9805   34.0647 -321.6870   56.0467  -54.0222    4.3729  -56.8091   -0.1280
   64.7716   58.3150  -45.3072 -100.7745  311.5076   67.1195  201.7061   92.2589   52.4639  227.2563
  -41.6610    3.6411    5.4689  -13.0164   67.8233 -119.2040  -86.5838  -68.6826 -252.6808  134.0723
  -19.3752    1.9642  -85.3509   -9.3486    5.9590 -135.1964  243.2356 -213.6606  152.9513   74.4261
 -247.0127   -4.7797   84.9769   46.8682   39.1745 -404.9133  364.0905 -439.6711 -142.4337 -481.3418
  -35.0465 -472.4526  462.2192 2313.3293 1349.5312 2071.4035
  -41.9294   16.8431    7.3679   17.2653  -36.9431  -51.2645  -46.8458  -34.5432  -27.1521   23.1417
  -70.8844 -125.1114  194.6328  -27.7173  240.7724  274.3390   96.1177  170.2968   31.0384 -130.9388
  -85.4287   34.6117  286.0097  172.6328 -752.6048 -133.4611 -325.8790 -124.1383  -71.6332 -333.5029
  -74.2767 -191.9733  219.4727 -128.6936   12.9103 -193.4670  274.7128   20.3737  545.5224  -59.6089
  225.7380 -295.0634   13.5037  101.7275   86.7779  125.7466 -213.0151  154.4533 -107.6602  -44.0685
  460.3002   55.5807 -137.3608 -498.9220   99.8633  261.5922 -136.8701 -223.8447 -100.3650  -73.6137
   28.0188  214.9597 -392.1814-2899.0544 -779.2452-1853.2856 3138.2527
   69.6344   25.3673  -59.4793 -113.6665  -62.2425 -172.4912  -94.5320  -26.8651  -95.1618   51.8905
  -24.3476  131.3776   -9.1329  240.1048    1.9915 -269.3768 -125.7878 -165.6335  -68.9714 -262.6130
  -91.2583   31.1646   10.0660   59.9507  248.0915  100.0374  193.3031  -34.0407   23.3976 -129.5822
  -84.0861 -321.8857  318.5387  -86.5631 -107.4024 -349.1055  188.1435   16.9583  403.9310  -64.9996
  230.7576 -137.3927  -56.9603  115.8331  114.4797   29.9676 -134.7930  132.4643  197.4523  180.8428
  149.3273 -172.0689 -219.8265 -285.9474   73.9710   47.5154  -71.8703  -87.0014 -352.6990 -167.2947
   29.8677  -69.9395  141.8513 -663.3245-3368.0889 -952.0122  802.5490 3637.2464
    6.7021    8.3940  -30.3900   66.7014  -40.9543  -15.3215  -63.3541   19.0675   48.7018  -46.7285
  -71.8690 -137.0971   54.9064   32.9011  198.9418  123.2168   69.2831   51.6287   14.4018 -156.3036
 -100.9814   47.3956  192.1617   68.7449 -366.7361  -69.0938 -113.7670   -8.7199  -47.3368 -148.7174
   31.0070  -53.3174   13.4677  -17.1889  -92.8107 -248.1540  108.0533   71.6618  395.8605 -169.4984
   68.0094  -71.1810   -3.8612  124.6864   56.0723   35.0252 -274.3545   94.9089  -68.8672   17.1499
  325.3401  -11.3970 -178.2008 -410.2351  163.2846  268.7798   -8.4781 -195.7349 -210.2253  -17.1707
   13.5033  165.2283 -264.6614-1654.4680 -888.6638-1311.0924 1832.5110 1052.6732 1389.8083
  -95.0194   -0.5116   13.8467   49.2218  -54.5029   41.7638  -13.2042   40.8135   20.8722   -8.0261
   33.1416  -56.3877  -80.9126  -97.9693 -101.3538  192.7546   36.3820  123.0524  -16.1077   13.4057
    7.6362   20.6829   51.0878   71.5913  -77.8426   35.0525  -57.5320  149.7722   -4.4760  -62.0828
   -5.5926  -28.8981   28.5429  -36.7916  133.0078   82.3870    0.9006  -61.1003 -127.4584  -79.6769
  -24.8633   53.6290  -73.7826  -17.2624   37.8928   24.3263 -105.4121   38.7420  -77.1956  -75.9513
  159.9239  115.8835   79.9652 -249.2513   -0.9030  126.9185   22.1825   12.7856   42.0296   60.3104
 -967.8318  832.4720 1025.7774   -5.7193  153.9350   73.3212  -45.7510 -143.5279  -48.5100 1047.3145
   39.3506  -57.2827   11.1791   27.4966   74.0250  160.6850   -8.4760  -89.8291  -20.2164  -54.8920
   -9.7523 -159.3986   76.9686  206.1832  170.1807   48.4656  -46.2192   32.0761  -26.1315 -229.5563
  -92.8653  -26.8497  105.3126   15.5445 -135.1537 -132.7764  -55.6353  -86.0877   34.6799   29.6632
   75.2342  -30.5180  -14.8125  126.7045   54.0956  409.9298   47.4018  -38.1755 -384.1245    9.4137
   37.7376  -52.8731  -19.5223   38.5741 -162.2126  -64.4241  -38.1184  -26.1519   42.9691   74.5500
   91.1881  -36.0294  -55.3155   63.5154   76.3994 -115.5374   94.8612 -188.3743 -119.3457  -87.3663
  833.2247-1528.9830  202.6518  354.4558  142.1185  204.3802 -183.8943   85.2789  -89.8976 -868.1030
 1520.2619
  111.8261   70.8058 -101.1149 -227.2612  145.5302 -434.1737  160.9545  -25.4464   -4.0454   87.5179
   12.1503  400.2765  131.5815   30.8383  123.2006 -654.5022    9.4582 -485.9354  -29.0488  -28.4880
  -24.2507   89.9604   16.1363 -192.3120  546.8411   81.3038  398.5028 -145.4041  115.0345   -0.1535
 -103.6656  -68.7908   96.0647 -193.1849 -442.0029 -704.1365   -2.6893  178.3526  886.7681  365.5408
 -128.8870  -30.3050   68.4284   70.1434 -377.3487  323.1613  -10.5440  326.3858  -91.9602 -109.4848
 -222.5883 -123.1333   46.4709  507.9402 -217.0386  121.3219 -414.9185   88.7623  345.7153-1333.1480
  978.4634   65.2681-4170.6695 -537.1917 -258.4827 -483.5949  365.4998 -101.2783  204.3942-1039.9856
 -281.4070 5662.9891


      MOLECULAR POINT GROUP   :   C1  


          ALPHA EIGENVALUES  
 -31.08269 -30.87465 -30.78059 -30.59406 -29.54071 -28.93425 -28.91070 -28.88544
 -28.84517 -28.43050 -28.40518 -28.37062 -23.80541 -16.91016 -16.19151 -15.44951
 -15.39292 -15.35339 -11.88335 -11.17508 -11.07508 -10.80200 -10.05698  -9.56866
  -9.48141  -9.35195  -9.27152  -8.97768  -8.70616  -8.46902  -8.33926  -8.31548
  -7.98474  -7.96274  -7.92522  -7.86173  -7.63774  -7.40569  -7.36334  -7.22369
  -7.20017  -7.14859  -6.70458  -6.68223  -6.65670  -6.27303  -5.98344  -5.80147
  -5.25543  -4.51582  -4.15318  -4.00008  -3.94715  -3.89388  -3.33509  -3.22824
  -2.81782  -2.53680  -1.28964   6.34097   6.37804   6.75581   7.01243   7.05634
   7.14128   7.15823   7.17870   7.20863   7.23386   7.24232   7.26500   7.44596
   7.76139   7.81956   8.06803   8.28794   8.31205   8.39189   8.53415   8.75597
  10.23168  10.43567  10.46155  10.53895  10.66572  11.18536  11.48277  11.50008
  11.80165  11.83260  11.85762  11.95562  11.97327  11.99232  12.01780  57.97190
  58.64044  59.30435


           BETA EIGENVALUES 
 -31.02349 -30.79785 -30.78060 -30.52397 -29.54069 -28.93423 -28.90828 -28.88433
 -28.83429 -28.41949 -28.39424 -28.35295 -23.88566 -16.82542 -16.19151 -15.39517
 -15.32764 -15.26924 -11.71066 -10.80200 -10.77898 -10.76162 -10.05699  -9.49480
  -9.39851  -9.28678  -9.02091  -8.97766  -8.70614  -8.44462  -8.32387  -8.26604
  -7.93125  -7.91040  -7.88457  -7.86171  -7.53580  -7.40850  -7.36333  -7.22390
  -7.20170  -7.14443  -6.70112  -6.67926  -6.64805  -5.70710  -5.44508  -5.31579
  -5.25541  -3.94718  -3.87862  -3.54743  -3.44891  -2.91178  -2.28143  -1.97776
   6.34096   6.37808   6.67882   6.75581   7.09548   7.13984   7.15735   7.16371
   7.21026   7.22221   7.23159   7.28910   7.32382   7.38667   7.51521   7.73158
   7.81954   8.06803   8.30725   8.36298   8.44001   8.78561   9.18176   9.78330
  10.23168  10.57416  10.60446  10.61817  11.13357  11.18536  11.50007  11.58674
  11.82317  11.84300  11.89195  12.01396  12.03605  12.04638  12.17104  58.93427
  59.86362  60.02380


              NET ATOMIC CHARGES AND DIPOLE CONTRIBUTIONS

  ATOM NO.   TYPE          CHARGE      No. of ELECS.   s-Pop       p-Pop       d-Pop       
    1         Co           1.056188        7.9438     0.83996     0.13912     6.96474
    2          C           0.046932        3.9531     1.19904     2.75403
    3          H           0.064115        0.9359     0.93589
    4          O          -0.562535        6.5625     1.88107     4.68146
    5          N          -0.634956        5.6350     1.65700     3.97796
    6          C           0.331158        3.6688     1.06996     2.59888
    7          C           0.350409        3.6496     1.06585     2.58375
    8          N          -0.452374        5.4524     1.84538     3.60700
    9          N          -0.436980        5.4370     1.84466     3.59232
   10          N          -0.633035        5.6330     1.68437     3.94866
   11          C           0.335155        3.6648     1.07368     2.59117
   12          C           0.333058        3.6669     1.07442     2.59253
   13          N          -0.461171        5.4612     1.84586     3.61531
   14          N          -0.454626        5.4546     1.84513     3.60950
   15          N          -0.627557        5.6276     1.71937     3.90818
   16          C           0.343747        3.6563     1.06948     2.58677
   17          C           0.342821        3.6572     1.06942     2.58776
   18          N          -0.527747        5.5277     1.84741     3.68034
   19          N          -0.531264        5.5313     1.84752     3.68375
   20          N          -0.631421        5.6314     1.68493     3.94649
   21          C           0.332664        3.6673     1.07500     2.59234
   22          C           0.333995        3.6660     1.07379     2.59222
   23          N          -0.452549        5.4525     1.84508     3.60747
   24          N          -0.464026        5.4640     1.84598     3.61805
 DIPOLE           X         Y         Z       TOTAL
 POINT-CHG.   -44.408    53.911     6.117    70.113
 HYBRID         0.007    -0.008    -0.028     0.030
 SUM          -44.401    53.903     6.090    70.101


          ATOMIC ORBITAL ELECTRON POPULATIONS

     Atom    s        px        py        pz      x^2-y^2     xz        z^2       yz        xy
    1 Co   0.83996   0.06158   0.05072   0.02682   1.65438   1.08044   1.62620   1.47807   1.12565
    2  C   1.19904   0.97644   0.90505   0.87254
    3  H   0.93589
    4  O   1.88107   1.66629   1.68732   1.32786
    5  N   1.65700   1.39357   1.48515   1.09924
    6  C   1.06996   0.85127   0.88644   0.86118
    7  C   1.06585   0.88601   0.85830   0.83943
    8  N   1.84538   1.19662   1.22488   1.18549
    9  N   1.84466   1.19727   1.21472   1.18034
   10  N   1.68437   1.29992   1.38665   1.26210
   11  C   1.07368   0.83276   0.88387   0.87454
   12  C   1.07442   0.89482   0.84741   0.85030
   13  N   1.84586   1.19218   1.20429   1.21884
   14  N   1.84513   1.20513   1.19767   1.20670
   15  N   1.71937   1.51718   1.13929   1.25171
   16  C   1.06948   0.87996   0.81385   0.89296
   17  C   1.06942   0.86413   0.89835   0.82529
   18  N   1.84741   1.28146   1.19116   1.20772
   19  N   1.84752   1.28498   1.18474   1.21403
   20  N   1.68493   1.47199   1.10178   1.37272
   21  C   1.07500   0.85262   0.89662   0.84310
   22  C   1.07379   0.88597   0.81457   0.89168
   23  N   1.84508   1.22484   1.17869   1.20395
   24  N   1.84598   1.23378   1.16450   1.21978


                    (SZ)    =    1.500000
                    (S**2)  =    3.785986


          ATOMIC ORBITAL SPIN POPULATIONS

    Atom   Total    s     px     py     pz   x^2-y^2  xz     z^2    yz     xy
         Atomic
    1 Co  2.8240  0.129 -0.000 -0.001 -0.000  0.253  0.860  0.342  0.463  0.778
    2  C -0.0758 -0.021 -0.026 -0.019 -0.010
    3  H  0.0260  0.026
    4  O -0.0522 -0.001 -0.030 -0.028  0.007
    5  N  0.0262  0.027 -0.003  0.001  0.001
    6  C  0.0138  0.008 -0.000 -0.002  0.008
    7  C  0.0072  0.003  0.000  0.000  0.004
    8  N  0.0014 -0.000  0.000 -0.002  0.003
    9  N  0.0131 -0.000  0.000  0.003  0.009
   10  N  0.0467  0.053 -0.005 -0.004  0.002
   11  C  0.0276  0.012  0.006  0.000  0.010
   12  C  0.0314  0.013  0.005  0.004  0.010
   13  N -0.0000 -0.000  0.002 -0.004  0.002
   14  N  0.0023 -0.000 -0.002 -0.000  0.004
   15  N -0.0000 -0.000 -0.000 -0.000 -0.000
   16  C  0.0000 -0.000 -0.000 -0.000  0.000
   17  C -0.0000 -0.000  0.000 -0.000 -0.000
   18  N  0.0000  0.000  0.000  0.000 -0.000
   19  N  0.0000 -0.000  0.000  0.000 -0.000
   20  N  0.0469  0.053  0.005 -0.006 -0.004
   21  C  0.0290  0.012  0.006  0.008  0.003
   22  C  0.0285  0.012  0.001  0.011  0.004
   23  N  0.0027 -0.000 -0.001  0.004  0.000
   24  N  0.0012 -0.000 -0.002  0.008 -0.004

 **********************
 *                    *
 * JOB ENDED NORMALLY *
 *                    *
 **********************



 TOTAL JOB TIME:             7.87 SECONDS

 == MOPAC DONE ==
