 *******************************************************************************
 ** Site#: 26130        For non-commercial use only     Version 16.299L 64BITS**
 *******************************************************************************
 ** Cite this program as: MOPAC2016, Version: 16.299L, James J. P. Stewart,   **
 ** Stewart Computational Chemistry, web: HTTP://OpenMOPAC.net. Days left: 350**
 *******************************************************************************
 **                                                                           **
 **                                MOPAC2016                                  **
 **                                                                           **
 *******************************************************************************

                              PM7 CALCULATION RESULTS


 *******************************************************************************
 *  CALCULATION DONE:                                Thu Nov 10 16:00:30 2016  *
 *  PM7        - The PM7 Hamiltonian to be used
 *  DOUBLET    - SPIN STATE DEFINED AS A DOUBLET
 *  UHF        - UNRESTRICTED HARTREE-FOCK CALCULATION
 *
 *
 *
 *                 CHARGE ON SYSTEM =    -3
 *
 *
 *
 *  XYZ        - CARTESIAN COORDINATE SYSTEM TO BE USED
 *  EF         - USE EF ROUTINE FOR MINIMUM SEARCH
 *  T=         - A TIME OF 172800.0 SECONDS REQUESTED
 *  DUMP=N     - RESTART FILE WRITTEN EVERY  7200.000 SECONDS
 *  HESSIAN    - WRITE OUT HESSIAN FROM GEOMERY OPTIMIZATION
 *******************************************************************************
 EF PM7 XYZ HESSIAN DOUBLET UHF CHARGE=-3
 1006_C_0_2

   ATOM   CHEMICAL          X               Y               Z
  NUMBER   SYMBOL      (ANGSTROMS)     (ANGSTROMS)     (ANGSTROMS)
 
     1      Co          0.00000000  *   0.00000000  *   0.00000000  *
     2       C          0.00000000  *   0.00000000  *   1.96000000  *
     3       H          0.59907900  *  -0.75660100  *   1.46533400  *
     4       O         -0.03774000  *   0.04766300  *   3.17797300  *
     5       N         -1.52028000  *   1.52028000  *   0.00000700  *
     6       C         -2.84833400  *   1.17068100  *  -0.18503900  *
     7       C         -1.17074000  *   2.84839300  *   0.18505300  *
     8       N         -0.87835300  *   3.95751200  *   0.33954000  *
     9       N         -3.95737900  *   0.87821800  *  -0.33969800  *
    10       N         -1.52028400  *  -1.52027500  *   0.00000200  *
    11       C         -1.58784100  *  -2.43117300  *   1.04206300  *
    12       C         -2.43124200  *  -1.58789200  *  -1.04205800  *
    13       N         -3.19180400  *  -1.64406100  *  -1.91262700  *
    14       N         -1.64382200  *  -3.19177500  *   1.91257200  *
    15       N          1.52027500  *  -1.52028400  *   0.00000200  *
    16       C          2.44067900  *  -1.57833600  *   1.03425400  *
    17       C          1.57838600  *  -2.44074700  *  -1.03424900  *
    18       N          1.62661500  *  -3.20925100  *  -1.89829600  *
    19       N          3.20922100  *  -1.62637600  *   1.89823900  *
    20       N          1.52027800  *   1.52028100  *   0.00000600  *
    21       C          1.27449900  *   2.74451500  *  -0.60085400  *
    22       C          2.74457100  *   1.27456200  *   0.60086700  *
    23       N          3.76698400  *   1.06888100  *   1.10273100  *
    24       N          1.06878600  *   3.76681000  *  -1.10287900  *
 


          CARTESIAN COORDINATES 

    NO.       ATOM         X         Y         Z

     1        Co        0.0000    0.0000    0.0000
     2         C        0.0000    0.0000    1.9600
     3         H        0.5991   -0.7566    1.4653
     4         O       -0.0377    0.0477    3.1780
     5         N       -1.5203    1.5203    0.0000
     6         C       -2.8483    1.1707   -0.1850
     7         C       -1.1707    2.8484    0.1851
     8         N       -0.8784    3.9575    0.3395
     9         N       -3.9574    0.8782   -0.3397
    10         N       -1.5203   -1.5203    0.0000
    11         C       -1.5878   -2.4312    1.0421
    12         C       -2.4312   -1.5879   -1.0421
    13         N       -3.1918   -1.6441   -1.9126
    14         N       -1.6438   -3.1918    1.9126
    15         N        1.5203   -1.5203    0.0000
    16         C        2.4407   -1.5783    1.0343
    17         C        1.5784   -2.4407   -1.0342
    18         N        1.6266   -3.2093   -1.8983
    19         N        3.2092   -1.6264    1.8982
    20         N        1.5203    1.5203    0.0000
    21         C        1.2745    2.7445   -0.6009
    22         C        2.7446    1.2746    0.6009
    23         N        3.7670    1.0689    1.1027
    24         N        1.0688    3.7668   -1.1029

 General Reference for PM7:
 "Optimization of Parameters for Semiempirical Methods VI: More Modifications to the 
 NDDO Approximations and Re-optimization of Parameters", J. J. P. Stewart, J. Mol. Mod., 1:32, 19 (2013)
 http://www.springerlink.com/openurl.asp?genre=article&id=doi:10.1007/s00894-012-1667-x

           Empirical Formula: C9 H N12 O Co  =    24 atoms



      MOLECULAR POINT GROUP   :   C1  


 DOUBLET STATE CALCULATION


          UHF CALCULATION, NO. OF ALPHA ELECTRONS =   58
                           NO. OF BETA  ELECTRONS =   57

          Geometry optimization using EF

          DIAGONAL MATRIX USED AS START HESSIAN

 CYCLE:     1 TIME:   0.336 TIME LEFT:  2.00D  GRAD.:   322.834 HEAT:  389.6764
 CYCLE:     2 TIME:   0.047 TIME LEFT:  2.00D  GRAD.:   268.167 HEAT:  378.1758
 CYCLE:     3 TIME:   0.023 TIME LEFT:  2.00D  GRAD.:   128.174 HEAT:  361.4142
 CYCLE:     4 TIME:   0.027 TIME LEFT:  2.00D  GRAD.:   155.274 HEAT:  348.6392
 CYCLE:     5 TIME:   0.031 TIME LEFT:  2.00D  GRAD.:   288.367 HEAT:  338.4758
 CYCLE:     6 TIME:   0.039 TIME LEFT:  2.00D  GRAD.:   301.621 HEAT:  331.4723
 CYCLE:     7 TIME:   0.066 TIME LEFT:  2.00D  GRAD.:   231.508 HEAT:  319.9478
 CYCLE:     8 TIME:   0.047 TIME LEFT:  2.00D  GRAD.:   158.744 HEAT:  315.6370
 CYCLE:     9 TIME:   0.023 TIME LEFT:  2.00D  GRAD.:   189.152 HEAT:  313.6709
 CYCLE:    10 TIME:   0.027 TIME LEFT:  2.00D  GRAD.:   101.767 HEAT:  308.8454
 CYCLE:    11 TIME:   0.027 TIME LEFT:  2.00D  GRAD.:   135.856 HEAT:  306.3991
 CYCLE:    12 TIME:   0.051 TIME LEFT:  2.00D  GRAD.:   142.877 HEAT:  305.2263
 CYCLE:    13 TIME:   0.023 TIME LEFT:  2.00D  GRAD.:    88.849 HEAT:  303.5714
 CYCLE:    14 TIME:   0.023 TIME LEFT:  2.00D  GRAD.:    63.928 HEAT:  301.8460
 CYCLE:    15 TIME:   0.047 TIME LEFT:  2.00D  GRAD.:    98.690 HEAT:  301.5249
 CYCLE:    16 TIME:   0.023 TIME LEFT:  2.00D  GRAD.:    76.785 HEAT:  300.4876
 CYCLE:    17 TIME:   0.047 TIME LEFT:  2.00D  GRAD.:    63.153 HEAT:  299.9270
 CYCLE:    18 TIME:   0.023 TIME LEFT:  2.00D  GRAD.:    30.270 HEAT:  299.0873
 CYCLE:    19 TIME:   0.023 TIME LEFT:  2.00D  GRAD.:   106.416 HEAT:  298.8372
 CYCLE:    20 TIME:   0.027 TIME LEFT:  2.00D  GRAD.:    31.657 HEAT:  296.9234
 CYCLE:    21 TIME:   0.023 TIME LEFT:  2.00D  GRAD.:    38.789 HEAT:  295.0258
 CYCLE:    22 TIME:   0.055 TIME LEFT:  2.00D  GRAD.:   130.024 HEAT:  294.5201
 CYCLE:    23 TIME:   0.027 TIME LEFT:  2.00D  GRAD.:    94.664 HEAT:  293.3826
 CYCLE:    24 TIME:   0.051 TIME LEFT:  2.00D  GRAD.:    87.524 HEAT:  292.0080
 CYCLE:    25 TIME:   0.051 TIME LEFT:  2.00D  GRAD.:    60.240 HEAT:  291.4000
 CYCLE:    26 TIME:   0.047 TIME LEFT:  2.00D  GRAD.:    32.939 HEAT:  291.0459
 CYCLE:    27 TIME:   0.023 TIME LEFT:  2.00D  GRAD.:    36.839 HEAT:  290.8261
 CYCLE:    28 TIME:   0.027 TIME LEFT:  2.00D  GRAD.:    16.371 HEAT:  290.3592
 CYCLE:    29 TIME:   0.027 TIME LEFT:  2.00D  GRAD.:    17.430 HEAT:  289.6266
 CYCLE:    30 TIME:   0.035 TIME LEFT:  2.00D  GRAD.:    27.390 HEAT:  288.3119
 CYCLE:    31 TIME:   0.043 TIME LEFT:  2.00D  GRAD.:    48.060 HEAT:  286.2469
 CYCLE:    32 TIME:   0.039 TIME LEFT:  2.00D  GRAD.:    56.445 HEAT:  283.9630
 CYCLE:    33 TIME:   0.145 TIME LEFT:  2.00D  GRAD.:    45.107 HEAT:  283.3112
 CYCLE:    34 TIME:   0.035 TIME LEFT:  2.00D  GRAD.:    66.093 HEAT:  283.1886
 CYCLE:    35 TIME:   0.039 TIME LEFT:  2.00D  GRAD.:    43.167 HEAT:  282.2912
 CYCLE:    36 TIME:   0.039 TIME LEFT:  2.00D  GRAD.:    83.617 HEAT:  282.2742
 CYCLE:    37 TIME:   0.035 TIME LEFT:  2.00D  GRAD.:    32.669 HEAT:  280.7822
 CYCLE:    38 TIME:   0.070 TIME LEFT:  2.00D  GRAD.:    51.218 HEAT:  280.7113
 CYCLE:    39 TIME:   0.035 TIME LEFT:  2.00D  GRAD.:    29.289 HEAT:  279.8100
 CYCLE:    40 TIME:   0.035 TIME LEFT:  2.00D  GRAD.:    55.141 HEAT:  279.5142
 CYCLE:    41 TIME:   0.031 TIME LEFT:  2.00D  GRAD.:    22.087 HEAT:  278.4966
 CYCLE:    42 TIME:   0.105 TIME LEFT:  2.00D  GRAD.:    33.030 HEAT:  278.2933
 CYCLE:    43 TIME:   0.027 TIME LEFT:  2.00D  GRAD.:    16.081 HEAT:  277.7972
 CYCLE:    44 TIME:   0.035 TIME LEFT:  2.00D  GRAD.:    26.370 HEAT:  277.3152
 CYCLE:    45 TIME:   0.035 TIME LEFT:  2.00D  GRAD.:    26.096 HEAT:  276.4833
 CYCLE:    46 TIME:   0.039 TIME LEFT:  2.00D  GRAD.:    50.007 HEAT:  275.4228
 CYCLE:    47 TIME:   0.039 TIME LEFT:  2.00D  GRAD.:    28.112 HEAT:  273.5189
 CYCLE:    48 TIME:   0.035 TIME LEFT:  2.00D  GRAD.:    88.516 HEAT:  273.3365
 CYCLE:    49 TIME:   0.035 TIME LEFT:  2.00D  GRAD.:    38.297 HEAT:  271.0712
 CYCLE:    50 TIME:   0.039 TIME LEFT:  2.00D  GRAD.:    79.660 HEAT:  270.8275
 CYCLE:    51 TIME:   0.035 TIME LEFT:  2.00D  GRAD.:    43.519 HEAT:  269.0011
 CYCLE:    52 TIME:   0.070 TIME LEFT:  2.00D  GRAD.:    73.498 HEAT:  268.8521
 CYCLE:    53 TIME:   0.035 TIME LEFT:  2.00D  GRAD.:    47.140 HEAT:  267.3340
 CYCLE:    54 TIME:   0.039 TIME LEFT:  2.00D  GRAD.:   128.110 HEAT:  267.1218
 CYCLE:    55 TIME:   0.039 TIME LEFT:  2.00D  GRAD.:    49.368 HEAT:  264.5993
 CYCLE:    56 TIME:   0.039 TIME LEFT:  2.00D  GRAD.:    73.547 HEAT:  263.0660
 CYCLE:    57 TIME:   0.039 TIME LEFT:  2.00D  GRAD.:    78.227 HEAT:  261.1189
 CYCLE:    58 TIME:   0.031 TIME LEFT:  2.00D  GRAD.:   102.191 HEAT:  259.8877
 CYCLE:    59 TIME:   0.035 TIME LEFT:  2.00D  GRAD.:    63.680 HEAT:  257.0332
 CYCLE:    60 TIME:   0.039 TIME LEFT:  2.00D  GRAD.:    99.787 HEAT:  256.1715
 CYCLE:    61 TIME:   0.039 TIME LEFT:  2.00D  GRAD.:    65.189 HEAT:  253.9320
 CYCLE:    62 TIME:   0.039 TIME LEFT:  2.00D  GRAD.:   113.566 HEAT:  253.5137
 CYCLE:    63 TIME:   0.031 TIME LEFT:  2.00D  GRAD.:    49.798 HEAT:  250.4062
 CYCLE:    64 TIME:   0.039 TIME LEFT:  2.00D  GRAD.:   130.886 HEAT:  250.0742
 CYCLE:    65 TIME:   0.039 TIME LEFT:  2.00D  GRAD.:    60.419 HEAT:  247.1228
 CYCLE:    66 TIME:   0.039 TIME LEFT:  2.00D  GRAD.:    77.280 HEAT:  245.8844
 CYCLE:    67 TIME:   0.039 TIME LEFT:  2.00D  GRAD.:    42.022 HEAT:  243.1376
 CYCLE:    68 TIME:   0.035 TIME LEFT:  2.00D  GRAD.:    82.298 HEAT:  242.0843
 CYCLE:    69 TIME:   0.039 TIME LEFT:  2.00D  GRAD.:    43.187 HEAT:  239.7170
 CYCLE:    70 TIME:   0.035 TIME LEFT:  2.00D  GRAD.:   106.580 HEAT:  239.6727
 CYCLE:    71 TIME:   0.039 TIME LEFT:  2.00D  GRAD.:    54.122 HEAT:  236.4878
 CYCLE:    72 TIME:   0.043 TIME LEFT:  2.00D  GRAD.:    98.621 HEAT:  236.1877
 CYCLE:    73 TIME:   0.035 TIME LEFT:  2.00D  GRAD.:    30.795 HEAT:  233.0124
 CYCLE:    74 TIME:   0.039 TIME LEFT:  2.00D  GRAD.:    67.303 HEAT:  231.8683
 CYCLE:    75 TIME:   0.035 TIME LEFT:  2.00D  GRAD.:    35.896 HEAT:  229.6346
 CYCLE:    76 TIME:   0.047 TIME LEFT:  2.00D  GRAD.:    80.684 HEAT:  228.5052
 CYCLE:    77 TIME:   0.039 TIME LEFT:  2.00D  GRAD.:    40.763 HEAT:  226.1733
 CYCLE:    78 TIME:   0.039 TIME LEFT:  2.00D  GRAD.:    54.706 HEAT:  224.7042
 CYCLE:    79 TIME:   0.035 TIME LEFT:  2.00D  GRAD.:    43.297 HEAT:  222.7854
 CYCLE:    80 TIME:   0.039 TIME LEFT:  2.00D  GRAD.:    59.880 HEAT:  221.4018
 CYCLE:    81 TIME:   0.039 TIME LEFT:  2.00D  GRAD.:    38.053 HEAT:  219.3661
 CYCLE:    82 TIME:   0.039 TIME LEFT:  2.00D  GRAD.:    56.778 HEAT:  218.1229
 CYCLE:    83 TIME:   0.035 TIME LEFT:  2.00D  GRAD.:    27.107 HEAT:  216.0230
 CYCLE:    84 TIME:   0.035 TIME LEFT:  2.00D  GRAD.:    76.820 HEAT:  215.0003
 CYCLE:    85 TIME:   0.035 TIME LEFT:  2.00D  GRAD.:    20.932 HEAT:  212.8929
 CYCLE:    86 TIME:   0.035 TIME LEFT:  2.00D  GRAD.:    40.439 HEAT:  211.5399
 CYCLE:    87 TIME:   0.035 TIME LEFT:  2.00D  GRAD.:    16.290 HEAT:  209.9234
 CYCLE:    88 TIME:   0.039 TIME LEFT:  2.00D  GRAD.:    60.060 HEAT:  208.9575
 CYCLE:    89 TIME:   0.035 TIME LEFT:  2.00D  GRAD.:    12.436 HEAT:  207.1327
 CYCLE:    90 TIME:   0.027 TIME LEFT:  2.00D  GRAD.:    18.526 HEAT:  205.8247
 CYCLE:    91 TIME:   0.035 TIME LEFT:  2.00D  GRAD.:    11.686 HEAT:  204.5167
 CYCLE:    92 TIME:   0.031 TIME LEFT:  2.00D  GRAD.:    15.413 HEAT:  203.2710
 CYCLE:    93 TIME:   0.035 TIME LEFT:  2.00D  GRAD.:     9.188 HEAT:  202.0349
 CYCLE:    94 TIME:   0.035 TIME LEFT:  2.00D  GRAD.:    12.822 HEAT:  200.8320
 CYCLE:    95 TIME:   0.035 TIME LEFT:  2.00D  GRAD.:     7.727 HEAT:  199.6594
 CYCLE:    96 TIME:   0.031 TIME LEFT:  2.00D  GRAD.:    10.611 HEAT:  198.5107
 CYCLE:    97 TIME:   0.031 TIME LEFT:  2.00D  GRAD.:    13.059 HEAT:  197.3985
 CYCLE:    98 TIME:   0.035 TIME LEFT:  2.00D  GRAD.:    12.138 HEAT:  196.3115
 CYCLE:    99 TIME:   0.035 TIME LEFT:  2.00D  GRAD.:     7.606 HEAT:  195.2504
 CYCLE:   100 TIME:   0.035 TIME LEFT:  2.00D  GRAD.:    11.807 HEAT:  194.1973
 CYCLE:   101 TIME:   0.031 TIME LEFT:  2.00D  GRAD.:    11.425 HEAT:  193.1876
 CYCLE:   102 TIME:   0.031 TIME LEFT:  2.00D  GRAD.:    11.191 HEAT:  192.1720
 CYCLE:   103 TIME:   0.035 TIME LEFT:  2.00D  GRAD.:    12.634 HEAT:  191.2095
 CYCLE:   104 TIME:   0.035 TIME LEFT:  2.00D  GRAD.:    11.591 HEAT:  190.2326
 CYCLE:   105 TIME:   0.039 TIME LEFT:  2.00D  GRAD.:    14.973 HEAT:  189.3035
 CYCLE:   106 TIME:   0.035 TIME LEFT:  2.00D  GRAD.:    17.176 HEAT:  188.3853
 CYCLE:   107 TIME:   0.035 TIME LEFT:  2.00D  GRAD.:    13.148 HEAT:  187.4757
 CYCLE:   108 TIME:   0.035 TIME LEFT:  2.00D  GRAD.:    11.302 HEAT:  186.5874
 CYCLE:   109 TIME:   0.031 TIME LEFT:  2.00D  GRAD.:    11.385 HEAT:  185.7347
 CYCLE:   110 TIME:   0.035 TIME LEFT:  2.00D  GRAD.:    10.155 HEAT:  184.8845
 CYCLE:   111 TIME:   0.035 TIME LEFT:  2.00D  GRAD.:    13.037 HEAT:  184.0561
 CYCLE:   112 TIME:   0.035 TIME LEFT:  2.00D  GRAD.:    10.210 HEAT:  183.2367
 CYCLE:   113 TIME:   0.035 TIME LEFT:  2.00D  GRAD.:    10.925 HEAT:  182.4568
 CYCLE:   114 TIME:   0.035 TIME LEFT:  2.00D  GRAD.:     9.341 HEAT:  181.6823
 CYCLE:   115 TIME:   0.031 TIME LEFT:  2.00D  GRAD.:     6.595 HEAT:  180.9517
 CYCLE:   116 TIME:   0.031 TIME LEFT:  2.00D  GRAD.:     8.022 HEAT:  180.2492
 CYCLE:   117 TIME:   0.035 TIME LEFT:  2.00D  GRAD.:     7.150 HEAT:  179.5479
 CYCLE:   118 TIME:   0.031 TIME LEFT:  2.00D  GRAD.:     8.872 HEAT:  178.8494
 CYCLE:   119 TIME:   0.035 TIME LEFT:  2.00D  GRAD.:     8.470 HEAT:  178.1561
 CYCLE:   120 TIME:   0.031 TIME LEFT:  2.00D  GRAD.:     7.443 HEAT:  177.4708
 CYCLE:   121 TIME:   0.031 TIME LEFT:  2.00D  GRAD.:     6.316 HEAT:  176.8110
 CYCLE:   122 TIME:   0.031 TIME LEFT:  2.00D  GRAD.:     4.194 HEAT:  176.1777
 CYCLE:   123 TIME:   0.031 TIME LEFT:  2.00D  GRAD.:     4.333 HEAT:  175.5633
 CYCLE:   124 TIME:   0.031 TIME LEFT:  2.00D  GRAD.:     6.846 HEAT:  174.9725
 CYCLE:   125 TIME:   0.031 TIME LEFT:  2.00D  GRAD.:     5.652 HEAT:  174.3863
 CYCLE:   126 TIME:   0.027 TIME LEFT:  2.00D  GRAD.:     5.369 HEAT:  173.8154
 CYCLE:   127 TIME:   0.031 TIME LEFT:  2.00D  GRAD.:     3.433 HEAT:  173.2555
 CYCLE:   128 TIME:   0.031 TIME LEFT:  2.00D  GRAD.:     3.391 HEAT:  172.7086
 CYCLE:   129 TIME:   0.031 TIME LEFT:  2.00D  GRAD.:     3.718 HEAT:  172.1673
 CYCLE:   130 TIME:   0.027 TIME LEFT:  2.00D  GRAD.:     3.637 HEAT:  172.1596
 CYCLE:   131 TIME:   0.102 TIME LEFT:  2.00D  GRAD.:     9.382 HEAT:  172.1593
 CYCLE:   132 TIME:   0.027 TIME LEFT:  2.00D  GRAD.:     2.637 HEAT:  172.1488
 CYCLE:   133 TIME:   0.027 TIME LEFT:  2.00D  GRAD.:     2.094 HEAT:  172.1428
 CYCLE:   134 TIME:   0.031 TIME LEFT:  2.00D  GRAD.:     5.024 HEAT:  172.0374
 CYCLE:   135 TIME:   0.027 TIME LEFT:  2.00D  GRAD.:    11.735 HEAT:  171.9017
 CYCLE:   136 TIME:   0.082 TIME LEFT:  2.00D  GRAD.:    10.801 HEAT:  171.8797
 CYCLE:   137 TIME:   0.031 TIME LEFT:  2.00D  GRAD.:     5.848 HEAT:  171.7932
 CYCLE:   138 TIME:   0.027 TIME LEFT:  2.00D  GRAD.:     4.985 HEAT:  171.7133
 CYCLE:   139 TIME:   0.027 TIME LEFT:  2.00D  GRAD.:     3.395 HEAT:  171.5626
 CYCLE:   140 TIME:   0.031 TIME LEFT:  2.00D  GRAD.:     4.501 HEAT:  171.2711
 CYCLE:   141 TIME:   0.031 TIME LEFT:  2.00D  GRAD.:     5.541 HEAT:  170.7710
 CYCLE:   142 TIME:   0.023 TIME LEFT:  2.00D  GRAD.:     8.764 HEAT:  170.2741
 CYCLE:   143 TIME:   0.031 TIME LEFT:  2.00D  GRAD.:     4.484 HEAT:  169.7775
 CYCLE:   144 TIME:   0.031 TIME LEFT:  2.00D  GRAD.:     4.388 HEAT:  169.2899
 CYCLE:   145 TIME:   0.031 TIME LEFT:  2.00D  GRAD.:     3.760 HEAT:  168.8051
 CYCLE:   146 TIME:   0.031 TIME LEFT:  2.00D  GRAD.:     4.728 HEAT:  168.3317
 CYCLE:   147 TIME:   0.027 TIME LEFT:  2.00D  GRAD.:     4.745 HEAT:  167.8725
 CYCLE:   148 TIME:   0.031 TIME LEFT:  2.00D  GRAD.:     4.316 HEAT:  167.4193
 CYCLE:   149 TIME:   0.023 TIME LEFT:  2.00D  GRAD.:     3.924 HEAT:  166.9742
 CYCLE:   150 TIME:   0.031 TIME LEFT:  2.00D  GRAD.:     4.409 HEAT:  166.5334
 CYCLE:   151 TIME:   0.027 TIME LEFT:  2.00D  GRAD.:     4.385 HEAT:  166.0961
 CYCLE:   152 TIME:   0.027 TIME LEFT:  2.00D  GRAD.:     3.547 HEAT:  165.6715
 CYCLE:   153 TIME:   0.031 TIME LEFT:  2.00D  GRAD.:     2.892 HEAT:  165.2545
 CYCLE:   154 TIME:   0.027 TIME LEFT:  2.00D  GRAD.:     2.707 HEAT:  165.2512
 CYCLE:   155 TIME:   0.027 TIME LEFT:  2.00D  GRAD.:     2.456 HEAT:  165.2472
 CYCLE:   156 TIME:   0.027 TIME LEFT:  2.00D  GRAD.:     2.032 HEAT:  165.2454
 CYCLE:   157 TIME:   0.027 TIME LEFT:  2.00D  GRAD.:     5.608 HEAT:  165.2497
 CYCLE:   158 TIME:   0.027 TIME LEFT:  2.00D  GRAD.:     1.851 HEAT:  165.2431
 CYCLE:   159 TIME:   0.027 TIME LEFT:  2.00D  GRAD.:     1.900 HEAT:  165.2417
 CYCLE:   160 TIME:   0.031 TIME LEFT:  2.00D  GRAD.:     1.387 HEAT:  165.2405
 CYCLE:   161 TIME:   0.027 TIME LEFT:  2.00D  GRAD.:     2.078 HEAT:  165.2388
 CYCLE:   162 TIME:   0.027 TIME LEFT:  2.00D  GRAD.:     1.601 HEAT:  165.2382
 CYCLE:   163 TIME:   0.031 TIME LEFT:  2.00D  GRAD.:     3.101 HEAT:  165.2395
 CYCLE:   164 TIME:   0.027 TIME LEFT:  2.00D  GRAD.:     1.404 HEAT:  165.2366
 CYCLE:   165 TIME:   0.027 TIME LEFT:  2.00D  GRAD.:     1.363 HEAT:  165.2358
 CYCLE:   166 TIME:   0.027 TIME LEFT:  2.00D  GRAD.:     1.126 HEAT:  165.2352
 CYCLE:   167 TIME:   0.066 TIME LEFT:  2.00D  GRAD.:     1.252 HEAT:  165.2147
 CYCLE:   168 TIME:   0.027 TIME LEFT:  2.00D  GRAD.:     1.437 HEAT:  165.2138
 CYCLE:   169 TIME:   0.027 TIME LEFT:  2.00D  GRAD.:     1.403 HEAT:  165.2127
 CYCLE:   170 TIME:   0.027 TIME LEFT:  2.00D  GRAD.:     1.451 HEAT:  165.2116
 CYCLE:   171 TIME:   0.031 TIME LEFT:  2.00D  GRAD.:     1.780 HEAT:  165.2105
 CYCLE:   172 TIME:   0.031 TIME LEFT:  2.00D  GRAD.:     2.182 HEAT:  165.2091
 CYCLE:   173 TIME:   0.031 TIME LEFT:  2.00D  GRAD.:     2.259 HEAT:  165.2071
 CYCLE:   174 TIME:   0.027 TIME LEFT:  2.00D  GRAD.:     2.414 HEAT:  165.2051
 CYCLE:   175 TIME:   0.031 TIME LEFT:  2.00D  GRAD.:     2.255 HEAT:  165.2037
 CYCLE:   176 TIME:   0.027 TIME LEFT:  2.00D  GRAD.:     2.657 HEAT:  165.2034
 CYCLE:   177 TIME:   0.027 TIME LEFT:  2.00D  GRAD.:     1.450 HEAT:  165.2014
 CYCLE:   178 TIME:   0.027 TIME LEFT:  2.00D  GRAD.:     1.458 HEAT:  165.2007
 CYCLE:   179 TIME:   0.027 TIME LEFT:  2.00D  GRAD.:     1.254 HEAT:  165.1998
 CYCLE:   180 TIME:   0.027 TIME LEFT:  2.00D  GRAD.:     1.346 HEAT:  165.1990
 CYCLE:   181 TIME:   0.027 TIME LEFT:  2.00D  GRAD.:     1.560 HEAT:  165.1982
 CYCLE:   182 TIME:   0.031 TIME LEFT:  2.00D  GRAD.:     1.399 HEAT:  165.1965
 CYCLE:   183 TIME:   0.027 TIME LEFT:  2.00D  GRAD.:     1.582 HEAT:  165.0127
 CYCLE:   184 TIME:   0.027 TIME LEFT:  2.00D  GRAD.:     1.334 HEAT:  164.8976
 CYCLE:   185 TIME:   0.031 TIME LEFT:  2.00D  GRAD.:     1.372 HEAT:  164.6700
 CYCLE:   186 TIME:   0.031 TIME LEFT:  2.00D  GRAD.:     1.919 HEAT:  164.2740
 CYCLE:   187 TIME:   0.031 TIME LEFT:  2.00D  GRAD.:     1.775 HEAT:  163.8846
 CYCLE:   188 TIME:   0.031 TIME LEFT:  2.00D  GRAD.:     1.330 HEAT:  163.5012
 CYCLE:   189 TIME:   0.031 TIME LEFT:  2.00D  GRAD.:     1.405 HEAT:  163.1240
 CYCLE:   190 TIME:   0.027 TIME LEFT:  2.00D  GRAD.:     1.112 HEAT:  162.7533
 CYCLE:   191 TIME:   0.031 TIME LEFT:  2.00D  GRAD.:     1.272 HEAT:  162.3885
 CYCLE:   192 TIME:   0.031 TIME LEFT:  2.00D  GRAD.:     1.012 HEAT:  162.0300
 CYCLE:   193 TIME:   0.031 TIME LEFT:  2.00D  GRAD.:     1.181 HEAT:  161.6770
 CYCLE:   194 TIME:   0.027 TIME LEFT:  2.00D  GRAD.:     0.991 HEAT:  161.3298

     GRADIENT =  0.99081  IS LESS THAN CUTOFF =  1.00000



 -------------------------------------------------------------------------------
 EF PM7 XYZ HESSIAN DOUBLET UHF CHARGE=-3
 1006_C_0_2



     GEOMETRY OPTIMISED USING EIGENVECTOR FOLLOWING (EF).     
     SCF FIELD WAS ACHIEVED                                   


                              PM7 CALCULATION
                                                       MOPAC2016 (Version: 16.299L)
                                                       Thu Nov 10 16:00:37 2016
                                                       No. of days remaining = 350




          FINAL HEAT OF FORMATION =        161.32864 KCAL/MOL =     674.99902 KJ/MOL


          TOTAL ENERGY            =      -4049.40811 EV
          ELECTRONIC ENERGY       =     -17508.78643 EV  POINT GROUP:     C1  
          CORE-CORE REPULSION     =      13459.37832 EV
          COSMO AREA              =        418.79 SQUARE ANGSTROMS
          COSMO VOLUME            =        385.43 CUBIC ANGSTROMS

          GRADIENT NORM           =          0.99081
          IONIZATION POTENTIAL    =          3.642699 EV
          ALPHA SOMO LUMO (EV)    =         -3.643  4.420
          BETA  SOMO LUMO (EV)    =         -3.643  4.292
          NO. OF ALPHA ELECTRONS  =         58
          NO. OF BETA  ELECTRONS  =         57
          MOLECULAR WEIGHT        =        352.1199

          MOLECULAR DIMENSIONS (Angstroms)

            Atom       Atom       Distance
            N    23    N    14    36.43143
            N    24    N     9    15.82340
            N    19    N    13     6.73833


          SCF CALCULATIONS        =        218
 
          WALL-CLOCK TIME         =          7.195 SECONDS
          COMPUTATION TIME        =         28.230 SECONDS




   ATOM   CHEMICAL          X               Y               Z
  NUMBER   SYMBOL      (ANGSTROMS)     (ANGSTROMS)     (ANGSTROMS)
 
     1      Co         -1.50800199  *   1.22873965  *   4.25198968  *
     2       C         -1.81993189  *   0.46748523  *   5.79316771  *
     3       H         -2.03125575  *  -0.61463123  *   5.78657131  *
     4       O         -1.83119190  *   1.07575791  *   6.85018214  *
     5       N         -2.66128285  *   2.82348273  *   4.49959483  *
     6       C         -3.95875642  *   2.62125785  *   4.83348005  *
     7       C         -2.03446481  *   3.87620473  *   5.08107332  *
     8       N         -1.44380232  *   4.80279373  *   5.46754336  *
     9       N         -5.09363163  *   2.41544197  *   4.99876648  *
    10       N         -8.19399996  * -14.21696247  *  -4.46423201  *
    11       C         -9.18234220  * -14.84972724  *  -3.85507149  *
    12       C         -8.16707253  * -14.08875981  *  -5.78039848  *
    13       N         -8.00891092  * -13.90210987  *  -6.92839019  *
    14       N         -9.98495332  * -15.38134277  *  -3.18322338  *
    15       N         -0.37665795  *  -0.19183953  *   3.44220775  *
    16       C         -0.07741382  *  -1.37311110  *   4.02777104  *
    17       C          0.54081040  *   0.31823109  *   2.58835858  *
    18       N          1.25090515  *   0.80841504  *   1.80572800  *
    19       N          0.08018368  *  -2.40977228  *   4.53525677  *
    20       N         12.94677118  *  10.43143926  *  -6.48894763  *
    21       C         13.01171198  *  10.03821126  *  -7.74979211  *
    22       C         12.95696476  *  11.71296153  *  -6.16400809  *
    23       N         12.95873071  *  12.80305604  *  -5.72807105  *
    24       N         13.06689440  *   9.54282774  *  -8.81251300  *

                             CARTESIAN COORDINATES

   1   Co       -1.508001991     1.228739649     4.251989685
   2    C       -1.819931886     0.467485231     5.793167710
   3    H       -2.031255745    -0.614631227     5.786571310
   4    O       -1.831191903     1.075757909     6.850182138
   5    N       -2.661282845     2.823482734     4.499594830
   6    C       -3.958756422     2.621257854     4.833480048
   7    C       -2.034464808     3.876204732     5.081073316
   8    N       -1.443802318     4.802793733     5.467543357
   9    N       -5.093631625     2.415441975     4.998766476
  10    N       -8.193999961   -14.216962467    -4.464232014
  11    C       -9.182342205   -14.849727243    -3.855071492
  12    C       -8.167072526   -14.088759814    -5.780398485
  13    N       -8.008910922   -13.902109874    -6.928390195
  14    N       -9.984953321   -15.381342773    -3.183223377
  15    N       -0.376657950    -0.191839529     3.442207753
  16    C       -0.077413823    -1.373111104     4.027771035
  17    C        0.540810403     0.318231092     2.588358581
  18    N        1.250905155     0.808415040     1.805728003
  19    N        0.080183681    -2.409772278     4.535256774
  20    N       12.946771178    10.431439260    -6.488947626
  21    C       13.011711978    10.038211256    -7.749792114
  22    C       12.956964763    11.712961528    -6.164008092
  23    N       12.958730708    12.803056040    -5.728071047
  24    N       13.066894396     9.542827744    -8.812512996


           Empirical Formula: C9 H N12 O Co  =    24 atoms

    Hessian matrix from geometry optimization
  278.4847
 -120.1609  418.9999
  -67.1526    9.7981  426.5774
 -108.0895  -18.6336  -55.6221  684.1769
  -11.8321 -139.5804  162.3962  -94.8172 1690.5456
  -28.1662   11.2616  -33.8048   19.4657  999.6392 1941.0621
  -13.0915    0.5015   50.3840 -167.5909   23.0958   32.1468  200.0989
   -0.5228   10.5042   62.4916  -70.2937 -479.7127   60.4650   82.3265  809.6855
   -6.5790   27.7252   -3.0966  -34.8268  147.7714  -10.5650   18.1763  -18.2782  172.4951
   21.2410   34.7782   47.8124 -361.2653  144.2431   18.4642   65.6327   15.7337   27.8705  371.7292
   38.9422  -14.2792 -134.4066   98.7711 -986.8374-1014.0885  -75.4185 -113.0824 -141.0016  -83.5390
 1020.9066
   69.2313   19.0264 -284.8273   33.3282-1229.8089-1703.5789 -120.1985  -47.5871  -83.6800  -11.4976
 1198.6097 2063.2739
 -134.6617   61.4073  -13.1626   24.3107  102.3144  227.4215  -30.3806   32.7624   -4.6521   -0.9039
 -119.6930 -208.6784 1776.9772
   48.1557 -200.5960   76.5251   29.6221  -36.0713   25.5246    2.2988  120.6851  -38.1836  -52.0427
  -18.1006 -101.8322  481.7030 1395.4755
  -36.3292   51.6652  -55.0491   -8.6382  -39.0400  -37.8528   19.3574   21.2130   -1.2601  -13.6982
   -8.9724   10.3965    9.6109  343.4754  462.6125
  -52.2600   -7.6453   58.3520  136.7106   93.9540  125.6552  -12.6428  -56.7272   18.7052 -119.4174
 -195.4990 -161.0239 -907.6260   19.3151  220.3126 5421.8409
  -12.6912   -3.4716   10.8412   58.2400   67.3387  114.8924    9.3569   35.5277    2.8661  -49.2397
 -108.4631 -134.3644  -93.9133 -101.3277    3.8582  832.9559  461.9832
   -4.6948    1.3783  -22.7580    7.7243   90.5276   54.7747   16.4386  -54.0510   23.3938   -7.9618
  -49.8517  -55.4626  207.1955   25.2236 -117.4169 -691.4227  -54.1099  441.8838
   50.1921  -14.6520  -19.8109   22.6844  -12.9414  -33.8779  -37.5760  -22.9720    7.4845    4.1637
   67.5543   72.2660 -241.8150 -224.6921 -149.2747 -149.4391  -44.8393 -109.9877 1581.5343
   81.5818  -80.0832  -50.5897  -52.4962   21.9873  -67.4900  -37.8434  -42.2484   24.9682   26.5252
   63.8745   72.8953 -301.8112 -832.5650 -361.4900 -255.7609  -14.4504  -66.2979 1821.6077 3597.6746
   49.1243  -40.3761  -21.5606   -9.9821  -36.5020  -59.8656  -17.2835  -17.2460   -7.2062   -3.0944
   22.4736   49.1902 -179.8554 -307.8221 -238.4602  -73.6844   24.3216  -32.6592  725.7303 1290.7826
  785.7907
  -51.2198   24.8097   -2.8071  -42.3512   15.4552   16.1193   32.4670   -7.2117   -8.6274    2.1171
  -36.3727  -52.8988  -55.1892 -133.1341  -18.4153   -0.6453  -29.3417   40.9148-1046.0402-1322.1632
 -518.9936 1061.8259
  -24.0024   -5.7396   17.7387    4.3807  -23.0590   56.1468   46.8988   30.6222    3.4039   41.5780
  -41.3556   14.2747 -142.4761 -190.7236  -22.6931   95.3919  -53.0487   35.3766-1457.5474-2550.3669
 -920.3175 1440.5856 2819.5285
  -38.3280   30.8261  -33.9120   -0.9691   26.5057   46.8038   17.6215  -19.9615   -1.7086   -4.9321
  -60.5726  -23.5694  -40.0402 -106.1133   33.1213   23.1210   -5.8060   34.7829 -545.1895 -857.1145
 -426.9384  549.2079  889.1864  479.3187
  -15.3650   63.4638   -7.6285  -98.4601 -185.1125 -271.8076   71.0351   45.4030   -5.5518   34.3783
  234.6546  255.5650 -343.6937 -194.5554  -21.5959-4094.2255 -600.1282  520.5240 -109.3365   72.8242
    6.2026  118.0843   15.5704   16.6848 4366.5546
   24.4006  -22.7823   -6.0155  -33.1786  -63.7078  -72.5279  -18.5545   17.6571   -7.1840   12.8649
   70.5296   75.3848  -27.0390   48.8490    6.3764 -587.2038 -198.9153   54.7336   18.8234  115.6897
   41.7344   16.4679 -101.4905  -26.5820  604.0389  233.1099
  -11.7995   16.6664  -54.7042   52.5101  -77.7959  -79.3662   12.5390  -56.8526   14.8059  -28.1405
  123.7815  111.3296   -4.4791   -7.6651   37.2156  485.0794   45.1767 -203.6764   41.6930   32.4188
   21.0740  -39.4080  -46.4728  -31.2738 -505.4871  -57.8437  296.3050
  -19.3132  -23.9261    9.9697   45.3133   -7.2546   24.0839  -22.5572    1.9614    4.1731   -7.8798
   30.9374  -15.9110  -47.0526  -14.8511  -20.1670   56.7113   58.3211   -7.2794   49.2557   10.0438
  -34.2822  -41.4101  -42.8476   17.8817  -67.3146   -8.7263   25.7246  968.3717
   21.1534  -10.7082    8.9366   13.1837  -29.1810  -11.8076  -31.5604  -22.9085  -17.1352  -10.3960
   45.1564   16.9571  -65.8702  -67.8383  -10.1592 -210.4467  -18.0207   21.6064  -13.8773   58.9379
   -4.3288   14.6146  -16.7873    4.2698  190.1558   16.5684  -39.8006  487.9821  897.4798
  -14.3732  -27.0950  -69.9306    1.0017  -38.9456   26.4811  -38.8542  100.4785   -4.2707   10.0848
  -21.3304   61.4224  -57.0071   41.7353  -61.4376  356.2366   53.5694  -13.4257   25.1789 -116.3700
    3.3269  -17.3662   30.7519   21.4799 -237.3763  -19.4980   11.2088 -203.2623 -796.5054 2384.7403
   35.7452   15.8158   42.7700 -122.5813    0.2350  -27.0522  -15.2882    3.0266   -4.0524   34.5169
  -10.6674   35.4695   19.5813   28.5880  -60.9878  -87.5872 -110.8447    3.5004  -39.5040  -34.6430
   20.9082   54.2191   85.6023   -5.0028   47.0265   52.4769    6.2038 -664.0481 -496.2729  595.4538
 2010.3219
   -3.5962  -37.7670   57.3767  -76.0403   35.8272  125.4259   43.5276   61.3338   13.5964  -30.1247
  -80.0282 -124.2189  125.6527  131.5185  -83.9221 -168.5437  -97.1236  -42.0119  -88.1673 -200.5088
  -62.2820   81.4575  170.1381   53.6079   64.2712   14.9717    8.4893 -436.2722 -579.5880  645.0790
 1495.8429 2296.1077
    3.5774   -2.9755  -90.3032   72.5066  -38.4338 -137.3921  -55.5016  -45.6708  -18.8446   46.4479
   61.9447  144.2398 -134.6583 -113.7776  110.2315  314.5117  129.1126   21.9655  136.1201  262.6751
   91.6226 -130.3807 -257.5087  -75.8817 -249.9509  -76.2168   16.9168  378.3014  428.3246 -655.9522
-1770.8031-2489.0288 3414.1666
    8.0336   -7.1203   31.1193 -106.4430  208.8192  123.4225   16.1301  -50.9783    1.0000   79.8233
 -117.5853 -188.9331  108.0998  -12.7041   -8.2335 -108.7805  -38.8017  -15.9016   -3.7164  224.1416
   66.6251  -15.4173 -131.1101  -73.8296  -43.8458  -27.5247  -12.8530 -200.7120    1.1392 -215.9331
 -117.0452 -199.8104  313.7439 1168.0206
  -16.1936   -4.1163   -4.0064    4.4960   13.7237   43.1337   13.0950  -16.5370   10.0643  -12.0985
    3.1258  -33.5076   84.8256   13.7412   -3.8801   42.2143   11.9595   -5.2743    8.4428  -26.7000
   -4.5128   -9.3511    3.8698    5.0683 -140.4110  -42.7626   14.4771  -48.4540 -113.4854  -83.9123
  -34.8088  -17.5616   84.1291  157.2995  360.1232
   -2.5310  -91.7971   95.9123 -236.4110  447.0031  154.0674  107.7433   -2.1958   22.9945  161.7592
 -308.4345 -346.4944 -125.4013   57.0154   55.3090  -84.0249  -34.7309  -27.3617   55.0266  429.2244
   81.2302  -92.8794 -290.4539 -124.6125  201.4761  -30.5751  -81.2499  -63.8154  212.0864 -951.3594
  -95.1568 -283.5153  174.4657 1149.1354 -438.5755 6435.9612
  -15.4547    5.3750    9.1239   77.4690 -170.6437 -126.8513    4.1166   44.1821   -2.7178  -45.0500
   78.5001  176.9145  -28.0835   -1.1364   12.6839   -5.8842    2.0864    3.9638  -24.9672 -174.0041
  -41.9352   12.2142  127.7265   59.5393   61.2291   19.2260   22.5594 -120.1599   -4.7762 -158.2453
   43.5647  107.7673 -116.9241 -831.4471  -52.1622-1043.5314  991.7862
    3.3286  -19.1929   10.3422   -8.5116   -4.4095   -5.5926   -2.0492   16.8203    6.8587   -5.7345
  -19.3363   -4.4361  -49.6491  -30.2283   -0.0231   21.7334    0.1697   -6.1694   -6.2141    4.5358
   11.6584  -12.8318   23.0083    9.6440   20.9791    3.8149   -4.5027    1.2366   -9.3904   75.0083
   51.7120   27.2479  -82.4841 -107.7632 -127.2585  229.8135   95.4544  230.1255
   -9.0257   79.4307  -81.1711  233.7482 -412.1481 -162.7134  -19.1115   -4.1665  -18.5586 -203.6641
  241.9011  252.0790  189.4995  -23.3679    6.9742 -136.8005  -28.3752   47.0158  -88.7806 -387.9120
  -79.1099   88.6040  270.8266  135.3993    2.1085   12.5004   22.9812 -168.7685  -64.3983 -591.6126
  -89.8819   52.4723  -79.7624 -957.9387  438.4604-4977.9476 1154.3190 -229.9313 5360.1586
  -51.3356   12.0229  -34.3668   58.8721  -25.0748    8.2136    8.1624   34.2036   -0.7225  -29.0666
  -16.7961    0.4965  -74.8817   10.6359  108.1715  147.9040   85.2578   34.4701   -9.9133   -5.8921
   14.8185  -21.6677  -56.7661   -0.5320  -17.2158  -30.8553  -14.9460   15.7719    5.3301   -6.9778
-1166.8403 -942.1884 1185.4176   66.1465   -4.0876  151.4527 -111.6579  -10.7475  -66.3931 1224.9675
  -20.2341  -17.2098  -54.4597   71.8663  -48.1151 -116.7491  -23.1266   22.0005  -18.8706   23.1096
   -6.5299  126.3475  -98.2783  -48.4965   91.2578  351.5038   96.6072   24.1603   90.5496  114.8763
   68.3514 -121.6330 -131.2099  -37.7436 -239.1837  -56.3731   -1.1272   11.9001 -186.2029  197.1878
 -984.6053-1589.2845 1990.7272  160.2791  -21.7116  216.3993 -104.5636  -72.4212 -115.8041  965.3307
 1895.0943
   32.4961  -13.1397   56.0692  -76.4956   89.8806  202.4398   33.4273  -18.3100   24.7872  -48.6746
  -70.2039 -229.0693  136.6320   24.8680 -130.0660 -402.3796 -125.4890  -50.4535  -96.4855  -99.4708
  -59.3133  108.6571  148.4662   45.3874  227.5689   46.8058  -10.6667   67.6084  242.6286 -181.4088
 1226.6958 1914.3111-2576.9853 -253.0928  -11.8005 -344.4298  108.5340   35.1899  130.3571-1208.0390
-2132.0049 2839.5129
 -102.0216   48.0448   75.8603   25.0963   31.1117   -2.4411   33.5183  -64.0752    3.2055  -91.2405
   10.0674  -55.6166  108.9411    9.4120  -42.6662   42.9275   30.5583   37.9193  -28.3555 -134.5740
  -40.2000   44.6379  164.5754   53.1216  -38.1854  -83.1769   -1.0623  -64.1156  -96.7333   33.6259
   50.4862    4.6210   38.3472   -1.4392   63.6177 -142.9731   -2.2465  -24.1149  144.4835    8.3027
   59.2035  -56.4754 1022.1810
   49.6015 -171.3353  -99.9455   33.8347   91.1928   89.5585    8.9737   29.3428   16.5772  -52.4308
  -81.7518  -66.4247    6.2889   63.6991  -13.4467   47.2790  -18.4379   76.9560   27.7727  141.8154
   44.1941  -17.9670 -211.3283  -57.1596  -39.8018   40.1638   10.9418  -55.1676  -21.9726   59.7088
   40.7570   79.0233  -82.3151   35.6154  -30.9230  178.1312  -14.2152   14.3926 -145.3448   -3.1173
  -39.3064   42.0907 -195.8630 1446.1986
   50.2192   10.0367 -162.5955  -84.7092 -232.1336 -318.5912   -9.5214  -46.9790  -22.8313   32.3551
  239.5710  320.9909 -216.7096  -12.4666   57.2304 -255.9403  -61.7182    9.7152  -42.8890    2.3025
  -39.8442  105.8197   39.3098  -67.7235  444.0401    5.1988   90.8197  -85.1190   46.2509  -60.3403
    8.6057 -176.0981  250.9880  109.9439  -42.3934  350.3798  -57.5079   20.7994 -218.8244   60.6391
  126.9357 -249.3085 -413.0854 -436.6373 1902.4537
  -16.2401   12.5911  -52.3763   64.2303  -23.7610    4.4285   -0.6329  -24.4341   14.2987  -11.7535
  100.9808   52.2264   18.5559   -7.6599    2.3520 -183.3575  -73.1513   27.9187  -37.8293  -47.2961
   -8.5786   -8.0554  -31.2301  -14.1999  141.8516   32.2312   13.0001   30.7184   16.4841    6.3789
 -135.2930 -191.3804  181.9887  -11.4475    3.0891 -103.9711   -5.7693  -39.6320  100.9225  115.0510
  164.7000 -145.2047  -96.3011  280.9801 -260.7680 1149.1650
    2.0034  -62.4947  -11.1409  -23.2244    7.8766   -2.8586   24.8100   56.7962    3.3776   13.1597
  -71.3521  -69.4214  -38.8708   62.3166    7.3982   99.0133   79.6992  -42.2882   -4.3296  -33.3252
  -48.1907  -14.0630   -5.4941    9.4357  -53.9219   -4.4166   25.6540   47.4244   13.6732  -89.7346
   33.6502  137.4504 -116.6920   20.5752  -14.1657  161.6202   11.3885   30.7074 -112.6144 -135.9785
 -133.5068  148.4921   -4.8475 -630.8569  404.9862 -872.2841 2962.2644
   23.8233    8.4644  -36.9132   43.4521  -60.6912  -49.8145  -52.4742   13.8794   12.4407   10.6700
  138.2595  142.6302   20.1592  -40.7129  -23.7871 -293.1289 -115.4397   44.3636  -58.0029   56.6968
   26.7730    8.5028 -110.6711  -62.8723  208.0804   55.3920   -3.3412  -15.6217   10.3393   83.3580
 -125.8578 -215.1507  215.5199   21.1458   -4.8434  -96.9036  -28.6621  -44.8568   47.5074  188.8681
  217.3768 -234.4753   26.0840  439.7771 -333.0710 1100.9091-1891.1330 2186.7951
  -23.7954   38.9464  -15.4276   24.7858 -138.2522 -105.7939    9.9156   -7.6206    1.0197  -30.9922
  110.4294  150.6846    1.3428   72.0419   25.3340  203.5784   31.4775  -84.2595  113.2660   70.8599
   12.9590 -124.6408 -155.1915  -42.4867 -144.0001  -35.1957   46.0840    3.6988  -32.7067 -161.5762
  -14.4765  -61.4756   40.7859   48.4418   43.9271   52.2648  -15.0511  -30.2708  110.1982  -19.1244
   77.5514  -50.8058 -336.8684 -186.2445  219.6618  131.9599 -130.2873  134.0264 1600.2734
   38.1535  -38.7980   27.5058   76.6068  -96.9506  -45.8370   14.7614  -48.1291  -19.5190   -5.8032
  113.0257   58.0444  -30.9462   45.7216   -9.6597  104.7086   21.4320  -94.3669  178.8998  145.4203
   57.9144 -152.9752 -127.3679  -52.4613 -107.0018   38.1039   54.8138  108.3449   99.8454 -204.7719
   -1.2516 -135.7306  158.1606 -196.8397    7.7804 -235.1888  166.5907   13.9312  236.1822  -91.7126
   32.8705   -0.8382 -108.0475 -392.2081 -214.9967 -275.5139   30.7305 -257.5166  773.0831 1529.9885
   68.3958  -69.3096  115.0293  -85.6386  134.5785   71.5403  -32.1661  -60.7349    2.8400  112.5723
  -39.0553 -126.9754  -31.9165  -77.1137  -70.9789 -186.2293  -38.7129  -14.2174  -94.6036 -158.3057
  -45.3168  178.3056  313.7777   23.4026  162.8046  102.8929    9.0162  102.9762  236.8203  -10.8801
   55.6202   -5.2136  117.2001 -409.3139  -87.4136 -572.7860  329.3498   71.9785  221.6407  -93.8744
 -160.9397  125.6365  209.5117  -92.9610 -607.1309 -844.2421  529.6068-1120.3131-1794.1454  -95.9531
 5128.2608
   10.8325   -2.5107    9.7786  -84.7088   -5.6459  -63.2760  -42.5497   35.8156   -0.3740   66.4985
   31.3949   13.0420 -138.0494  -53.9973    2.5803 -211.6217  -68.9416    6.6221  -96.4890  -36.7805
  -31.6237  123.3431   56.8116    2.7278  254.8639   47.1967   -0.8682    5.1445   67.6355  105.8012
   -5.7186   50.1800  -16.3535  -48.7835  -89.5971   66.0431   19.5462   33.1591 -194.9329    0.3234
  -96.9897   34.7564 -163.6885  -68.1957  381.6867 -137.6260  127.1721  -85.8952-1110.5971 -699.0348
 1408.7933 1344.5194
  -11.4007   -2.9964  -24.5347  -42.6005   25.0688   29.8594   -8.3503  111.1870    8.2009   27.4270
  -90.2305  -52.0154  -38.4403 -107.1239   13.1933   35.3368  -14.9544   23.9633 -199.0262 -154.2649
  -44.1729  110.3859  249.0758   91.0511  -19.2888  -53.1131  -53.2258  -38.8220  -44.3500  149.8721
  -46.8064  136.9862 -190.1420  126.8157  -46.8399  278.9532 -157.9829   -3.6513 -283.9722   72.1933
  -90.7195   70.1086  -95.5852  -22.3443   59.2992  158.0353   -4.7705  178.0969 -555.6095 -977.4991
   -3.4353  745.5326 1167.2208
  -25.6337   -9.8744  -28.2103  107.2091   76.1130  215.9958    7.6598   67.1282    1.1445 -151.9683
 -146.2653 -148.5628  223.2923   77.9954   -8.4572  309.9873  119.9102  -11.1821  132.5224   85.7303
   44.6320 -239.1429 -152.1112   46.1354 -451.6759 -149.1795 -110.3228  -29.7244 -258.9695  -17.1860
  -66.2343   95.8559 -227.9072  398.3488  148.6536  387.3823 -328.5161  -94.9983 -128.9478   61.2523
  143.4952  -15.8234  492.9465   30.0417 -728.5718  915.9595 -528.5755  978.6922 1544.9062  253.1409
-4070.2822-1737.0322 -104.4013 4826.1864
  -51.5265   19.3657   10.1240    9.2105   61.0640   82.0189   21.0676   27.6751    0.6478   -7.7691
 -173.2307 -133.7684   13.6111  -33.4102   40.2158  298.4181   99.0355  -13.0434   46.1484   94.1260
   34.9843  -16.7488  -64.6932   26.0651 -294.0266    2.6066  -20.7591   -5.8581    2.5146  -24.9871
   80.8374  206.4800 -267.7627   45.9119   -1.4557  133.7561  -15.8404   23.4616 -118.9432 -131.7960
 -211.2679  210.9899 -264.5802   55.0477 -118.1382 -881.9809  809.3673-1076.4980 -118.6397  239.2618
  627.7043   66.3598  -68.7873 -772.0151 1190.7757
   37.8270   -0.9424   25.7669  -12.6725  -65.5990  -65.8415   -3.1404  -51.9462   -8.5747  -16.2984
  119.5895   98.9927   34.2397  -26.5643  -10.9491 -219.9684  -52.3988   44.4577  -26.3845  -52.2982
   46.5762   28.6528   60.2988   22.9282  164.5929   -0.4511    3.0045  -50.5290  -33.0889   60.9866
  -45.3412 -188.2142  207.1881  -35.2448   47.4901 -324.4679   34.3350  -42.6980  276.1334  139.3318
  201.5355 -228.9756  273.3568 -175.4911   79.9710  688.9924-2099.2081 1459.7292  119.4793 -154.6460
 -522.8437 -108.6640   41.6289  634.9237 -939.3392 2297.0668
  -43.8930  -32.4493  -26.1675   11.3514  103.7432  153.2765  -21.7855   45.6946   11.3992    2.8667
 -203.4953 -199.5442    4.1145   34.8819   21.7088  336.6856  105.5872  -57.8649   88.8723   78.2815
   -8.8919  -52.8251 -121.1100  -17.3193 -354.2787   13.8619  -29.7670   60.5586   42.1070  -82.3001
   45.4300  257.8857 -304.2079   41.1670    3.6082  223.2668  -11.7130   54.3541 -217.7851 -171.4514
 -278.0364  323.3919 -406.1423  134.2503 -146.0418 -898.2249 1535.8147-1607.7843 -151.9301  307.1095
  895.3926  120.8080 -115.7560 -943.1382 1313.0960-1749.1732 2020.2009
  -31.7036   12.0801  -37.8621   70.7908  -40.2478  -20.3671   25.3231   36.5458   -0.8534  -65.1143
  -59.2556   35.1928   64.9755  -31.5405   29.5347  142.1464   39.5893    7.9119   59.9710   49.7488
   17.2170  -44.5576    8.5894   29.0544 -117.6745  -48.9777   23.1296    5.1351   21.5504 -119.7466
  -55.5913   20.1859    8.7046  -33.6416   41.4168  -80.3418   23.6994   22.2514  195.8984   51.6801
   23.2906   26.9382  109.3521  -12.0619  193.1066  -41.8215   42.0249 -103.9636   90.5763 -170.5586
 -692.2522 -165.3413   76.3774  562.1755  -43.4125   23.7099  -85.0876 1127.8267
  -10.7627  -13.3311  -13.3389   88.3328    0.6651   70.4335   56.0132  -49.9705    6.9553  -82.1492
  -35.3779  -75.3795  -15.1645  -10.5520   59.9546  106.2777   78.6938   29.8718  -90.5678 -290.1195
  -48.9592  114.0997  272.6580  131.2577  -35.6621  -64.5747  -63.0038   23.4743  -12.0206   -8.0072
 -120.4939  -46.8106   73.5070 -104.8157   36.8087 -241.7321   41.1011    9.7272  261.6581  106.0956
   86.6788  -89.7424  116.8334    4.3046  -72.8058   98.9642 -157.8855   95.8665   30.5502   -6.1553
  -39.9780 -111.0628  -84.6160  115.2429 -117.8556  189.9235 -202.6995   57.0234 1617.9727
   35.2265    2.1730  -50.7391   31.3364  -41.5251    2.6595  -12.8672   54.2157  -29.5495  -20.8383
  -71.0635  -29.9674   36.8143  -50.4706  -40.0745   10.0226    8.7444  -36.0916   18.3645  300.0205
   71.0722   -6.0029 -154.8729  -41.5614    6.3057   29.1984   56.1609   28.4046   74.6300  -12.1723
  -67.9075    3.9166   -8.4672   42.4678  -41.0163    4.7728  -24.2040   13.7519  -16.6453  -30.7709
  -66.0014  100.4028  -30.1399   38.1333  329.5661 -145.3136  104.6545 -138.7222   49.6327 -212.4681
 -686.1493  -15.7185  194.4402  406.5851   57.2790  -86.8176   10.9016  968.8776  149.1658 2784.0768
    3.1380  -18.5979    8.3625  -30.2730   52.8243   60.9772  -24.2346  -13.5518   12.0709   48.2982
  -22.3215  -63.5128   10.2297    6.3223  -17.2920   17.8906   -9.4506  -21.3471   22.8169   13.0959
   -3.0050  -17.1248  -38.2863   -9.9174  -70.7511   -0.1835   -7.5554   57.7529   68.7230   13.0231
  -15.6172   13.7568   -1.1889  -48.0380    6.1332 -148.2646   34.5218    0.7265   80.6041  -23.6618
  -64.0555  100.6018  -42.1883  -23.7125  -99.0137   55.8792  -11.4670   49.3936   -1.0266   68.4847
  153.1557   10.6134  -54.4911  -68.5046  -59.8435   13.2800   -5.6037 -185.6248  -70.8533  -24.4013
  363.8325
   -7.5471    9.8411   -4.9108   51.6156 -155.4300 -212.1143   53.2165  109.0300  -31.7226 -122.7780
  -30.8805   97.1821  -51.3640   42.4660   70.6537  134.3612   36.3462   69.3227 -169.3422  -55.6373
   27.4941   85.5413  103.0895   10.5872   58.0049  -71.0632   -8.0973 -162.1203 -143.7077   61.7692
   50.3668  -94.0006  126.6778  161.8852  -50.3957  493.4519 -148.6055   44.3072 -343.6901  112.5254
  262.7811 -338.7183   50.5448  139.8097  514.4696 -267.2576  190.4794 -275.2327  -19.8335 -274.9151
 -373.3847   63.4652  199.4873  -54.5819  218.7092 -179.9035  110.1805  338.2287  -97.1117  314.9592
 -365.9659 1806.9306
  -77.5629  -27.6145   57.3577 -299.3417  263.2232  186.8193    5.9439   93.7353  120.5887  300.0484
 -128.8053 -222.0621  164.4019  226.6730   19.3702  -39.6878   13.1259  -81.7998  135.5210   41.5343
   50.2022 -140.2869 -328.9902 -137.8131 -161.3796  -37.9679    8.5934  -31.7729   30.6523 -226.2715
  -18.8276  252.5969 -214.5106 -195.3514   58.8576 -141.1456  269.4059  -23.9087  244.6359   21.7321
 -310.3317  397.0070  -24.8151  -96.9048 -254.0303  182.7769  -51.5129  210.9413   70.3547  223.2499
  481.9670  102.9130 -172.9006 -218.8936 -349.2227   43.1364  -82.0394 -335.3482 -413.0953-1476.2936
  132.8828  159.5237 5221.4989
   12.1563  -68.5115   80.7839 -106.0150   51.9622  -51.5132   58.9282 -172.1532   34.8044  139.1302
  119.3948  -15.8242    9.3474   71.4729    8.0092    4.5123  -45.9977  -62.1337  105.0080  -79.6163
   16.5428  -66.0749  -87.9338   26.1703 -122.8253   55.5229   78.5734  106.4130  118.9401   63.2968
    7.9987  -56.9493  118.6925  192.6420   66.6146  472.2925 -217.0042   16.6425 -548.4748  -79.9685
   25.9896 -116.1280  -74.3627 -194.3544 -468.3029  -26.5276  -49.6487  -78.4382  -38.5138  546.2566
 1022.6598   97.0732 -354.0281 -607.2374   49.1355   46.5972   94.4210 -286.1601   33.5861 -459.7544
  167.2339 -666.1413  696.6574 2285.2018
   20.9374  -46.1738   73.9059 -104.2490  -84.9739 -114.2370   30.9354    9.1750  -13.7895   43.8379
   94.9720   53.1022   62.2445  141.3075    4.0591  -12.2214 -107.0021  -42.9612 -191.3166 -124.4864
  -15.7200  132.4585   51.2134   41.9536  -24.6237   25.3414   62.2829 -115.7581  -58.1264  148.4264
  162.9813  136.2375 -153.2587   15.2041   20.3789   62.2956   31.2132   30.7043 -129.4390  -21.4938
  -14.7445   24.1142   -8.7586  -61.4803   35.4477   53.4758 -337.3617  196.3929 -164.0718   -2.8936
  583.6476  299.3314   54.9091 -553.5706 -161.5452  343.2402 -291.4669 -247.9037 -716.2218 -411.4689
   -6.5591    0.0305  255.3958  750.1012 3642.7568
   39.8412  -53.4609   45.7449 -101.9032   -4.5846 -119.1878   67.4726 -124.5661   11.2321  117.1628
  140.6863   59.3323   46.0016   75.7666  -10.8222  -82.0602  -78.3548  -52.1681   19.8171  -87.0311
   11.0725    9.3341  -42.0167   55.5837  -31.7550   69.5589  103.2241   54.5366   79.0437    4.1507
  -29.2185  -77.2680  124.2258  197.6777   47.6322  463.0682 -197.8576   22.8389 -482.1819  -41.9720
   55.4060 -143.9056  -38.3579 -194.0790 -383.4619   -7.8989 -120.8418  -24.0296 -112.1225  430.3175
 1111.3975  199.7738 -222.8122 -701.9004  -23.6704  134.3208  -29.5218 -115.1474 -113.8625 -431.6842
  109.6311 -554.1630  474.2340 1876.8419 2001.1074 2748.1662
  -45.3231   52.6958  -41.3232   38.1087    5.7767   96.0163  -67.5947  123.4600  -29.8102  -88.1038
  -77.7550  -54.2086  -96.5481  -68.4169  -35.6533  -24.8661   13.0411   30.4981 -131.6632   84.7395
  -14.2222   48.8042   -3.7286  -71.7677  117.6793  -47.0843  -68.6864  -65.4695 -104.1010   62.3914
   77.2976   70.3249 -119.4727 -126.6327  -84.0164 -282.0191  162.1931  -25.7938  287.2673   17.0638
  -73.0197  141.0560  -50.9658  200.6330  302.2020   59.3291   33.5077  138.9781  -39.3603 -372.3239
 -479.7602   29.3764  264.5206   85.1895   26.2694 -134.6830   49.6609 -640.9238 -147.9372 -428.8305
 -101.1868  323.2859 -228.8313-1929.4838 -564.6003-1809.1011 2679.8302
   11.5594   13.4103  -23.6432   28.1912   78.5069   89.7478  -42.1607   42.0877   14.8835   10.0716
  -55.0651  -39.4070  -22.5927  -88.1160  -59.7278 -135.7725   25.7064   19.6407  244.9521  210.0950
   -9.2225 -203.7930 -186.6703 -116.2239   82.0649    5.0214  -99.3243   74.0574   64.0850  -66.8352
  -60.8061  -33.9469   31.7565   26.3825  -22.4789   66.6593  -57.5593  -34.3678  -61.8648  -81.3681
  -89.2352  130.2126 -105.2210   96.0274  -32.2491 -110.3201  352.2169 -214.0413   40.7198   40.2776
 -212.6890 -118.4886  -74.4558   84.7443  272.9120 -437.8333  458.6537 -148.7902 -350.7824 -210.8709
   35.0708 -153.0512    2.3744 -546.3045-2589.7895-1562.8696  778.6338 2916.5629
  -24.2373   60.8747  -82.6234   75.2641   62.8639  137.7972  -80.3007   69.9917   -3.4576  -82.6669
  -57.5917  -66.1716 -109.1071  -86.0214  -23.1633   55.0423   46.1177   38.9677   11.2071  153.5816
  -35.2290  -44.9356  -78.9603 -153.3284   58.5802  -45.1973  -95.5552  -13.8026  -56.4477  103.9978
   45.4546   45.5703 -124.0236 -136.9605 -101.0021 -238.9831   76.4108  -61.5441  176.9809  -41.5309
 -142.6553  200.4547 -132.8323  258.8752  272.7554   29.6349  144.1214   47.4546  -14.0181 -332.1546
 -679.3355  -12.8352  224.7390  191.3672  190.4877 -292.1304  262.4627 -619.4766 -328.8181 -440.3935
  -12.1954  112.3739 -107.0443-1679.5177-1641.5439-2338.0854 2318.6983 1943.3624 3034.6047
    2.0270   -1.7490   22.4703    4.2838  -48.6537  -49.8584   30.5657   36.9934  -22.7558  -25.3792
  -10.3473   25.1274   -8.8641    3.6478    9.9486  -74.2894  -14.7913   20.6120  -58.8677  -60.4357
    1.1415   36.3648   77.9474   32.6207  100.1945  -16.8342  -16.1695  -55.0134  -48.5134   19.3214
   37.5623   58.6026  -66.0977   37.4170    5.6852  101.8649  -39.0331   21.4830  -72.8211   19.0037
    7.6619    3.1155   15.2186   38.6429   76.6255  -79.3584   15.9459  -57.9631  -28.0857  -41.1515
   52.3245   16.5025   12.8169 -127.9387   74.0984   -8.3222   28.2582  -21.1913   86.7692 -104.0946
 -156.8577  254.3609  -64.9769  -75.5846   61.3527   -8.0696   -5.0297  -52.8819   -5.1991  246.6696
   -9.2760  -22.2409  -52.2992  -73.1520  157.1078  179.0602  -89.7342  -92.3157    4.4244  110.8280
    8.0627  -88.6688   61.9952  -47.4499 -118.3573  -88.3741  -56.6208 -111.6383  212.6897  276.7501
   44.6258 -121.8009 -287.4682  -86.6039  -95.2467   67.9129   62.3628  134.7386  107.0154  -20.1046
   26.9022  115.6597  -91.7774 -103.7520   31.2019 -391.8562  125.1198  -51.7952  320.2868 -180.3056
 -229.5294  336.3784  -44.7285 -131.6091 -300.3851  189.5366  -30.9327  160.1602   86.2304  226.4659
  129.3844 -100.1748 -182.5567  165.1833 -231.8826   34.4486  -44.9150  -29.8466 -468.4108  103.1714
  414.1497-1463.3987  123.9451  394.7381 -129.2350  249.1416 -242.9737  138.8295  -18.4016 -331.2488
 1921.0096
   83.9540   28.5567  -80.9438  292.3240 -235.5807 -182.6825   45.1444 -159.0284  -66.1766 -283.7786
  154.7440  246.2024 -100.1610 -156.4091   36.8619  -16.5906   -3.9243  130.2846 -152.6492 -385.5347
  -99.0443  213.8739  575.4405  263.2695  201.2883   18.7854  -54.0193  -58.7238 -142.7506  176.1075
   76.9441 -216.9787  184.3962   45.7926    0.1611 -129.0382 -178.5490    2.7376   78.8485   19.0593
  357.8087 -441.5330  202.6726   14.7927   41.7411  -51.2803  -84.7228 -125.6080  -47.2502  -64.9055
  -31.0824 -193.8067  -30.5529   38.8072  128.2440  182.8192 -178.1144   52.2180  701.3644 -493.0044
 -210.4658  -36.9728-3810.9103 -263.8454  -65.6615 -188.8783  -20.0656 -225.1048 -233.8646  155.6377
 -466.9878 4623.6112


      MOLECULAR POINT GROUP   :   C1  


          ALPHA EIGENVALUES  
 -33.76077 -33.37884 -31.08751 -30.84049 -30.64187 -30.49452 -30.47390 -30.39290
 -29.25705 -29.24108 -28.65043 -28.63386 -26.39931 -19.01065 -17.73862 -17.51674
 -15.90980 -15.88376 -14.59219 -13.00750 -12.00041 -11.85741 -11.07354 -10.57508
 -10.51609 -10.49947 -10.30755 -10.15053  -9.92858  -9.77197  -9.75333  -9.67001
  -9.58023  -9.44050  -9.18561  -8.93646  -8.69529  -8.68275  -8.67859  -8.42209
  -8.41390  -8.40381  -7.77267  -7.57770  -7.56108  -7.08102  -7.06437  -6.50237
  -6.00623  -5.55639  -5.33978  -4.96840  -4.95398  -4.93779  -4.79138  -4.73266
  -3.66114  -3.64274   4.41999   4.84109   4.93025   5.06400   5.12611   5.19436
   5.27915   5.39327   5.97884   6.21065   6.39507   6.62427   6.64576   6.65970
   6.67733   6.88216   7.03608   7.04836   8.08499   8.10411   8.12048   8.19651
   8.35424   8.37616   8.43528   9.30639   9.55968   9.65479   9.69382   9.83164
   9.92203  10.51388  10.52682  11.46890  11.48640  11.78528  11.80151  55.10960
  56.24701  56.69299


           BETA EIGENVALUES 
 -33.76289 -33.36763 -31.08381 -30.83768 -30.63822 -30.49455 -30.47389 -30.39071
 -29.25699 -29.24109 -28.65037 -28.63387 -26.44558 -19.00227 -17.71874 -17.49914
 -15.90981 -15.88375 -14.52041 -12.99649 -11.98807 -11.81528 -11.06343 -10.57152
 -10.51610 -10.49948 -10.30040 -10.14131  -9.91779  -9.77198  -9.75333  -9.64852
  -9.58914  -9.44287  -9.18300  -8.93424  -8.69527  -8.67859  -8.67603  -8.42204
  -8.40382  -8.35863  -7.62223  -7.57766  -7.56110  -7.08097  -7.06438  -6.13125
  -5.89824  -5.04226  -4.96838  -4.95400  -4.81092  -4.54105  -4.35855  -3.66113
  -3.64270   4.29241   4.85892   4.95378   5.07143   5.11391   5.16948   5.20562
   5.33110   5.53658   6.16609   6.21802   6.44390   6.62431   6.64575   6.65976
   6.67729   7.03607   7.04837   7.13670   8.10409   8.12050   8.18369   8.35422
   8.37616   8.38239   8.45377   9.31215   9.56420   9.65186   9.68421   9.83694
   9.92242  10.51388  10.52682  11.46891  11.48639  11.78528  11.80151  55.70820
  56.39157  56.99564


              NET ATOMIC CHARGES AND DIPOLE CONTRIBUTIONS

  ATOM NO.   TYPE          CHARGE      No. of ELECS.   s-Pop       p-Pop       d-Pop       
    1         Co           0.549361        8.4506     0.99094     0.13011     7.32959
    2          C           0.252860        3.7471     1.17214     2.57500
    3          H           0.092605        0.9074     0.90739
    4          O          -0.540742        6.5407     1.87907     4.66167
    5          N          -0.548224        5.5482     1.63321     3.91501
    6          C           0.308924        3.6911     1.07321     2.61787
    7          C           0.293497        3.7065     1.07308     2.63343
    8          N          -0.350901        5.3509     1.84132     3.50958
    9          N          -0.370500        5.3705     1.84215     3.52835
   10          N          -0.624649        5.6246     1.71961     3.90504
   11          C           0.344214        3.6558     1.06973     2.58605
   12          C           0.342981        3.6570     1.06960     2.58742
   13          N          -0.528882        5.5289     1.84745     3.68143
   14          N          -0.533664        5.5337     1.84763     3.68603
   15          N          -0.573342        5.5733     1.62084     3.95250
   16          C           0.298397        3.7016     1.07002     2.63159
   17          C           0.280696        3.7193     1.07139     2.64791
   18          N          -0.338370        5.3384     1.84186     3.49651
   19          N          -0.354262        5.3543     1.84234     3.51192
   20          N          -0.625564        5.6256     1.71913     3.90643
   21          C           0.343414        3.6566     1.06947     2.58711
   22          C           0.344055        3.6559     1.06956     2.58638
   23          N          -0.532155        5.5322     1.84763     3.68453
   24          N          -0.529750        5.5298     1.84748     3.68227
 DIPOLE           X         Y         Z       TOTAL
 POINT-CHG.   -15.290    10.841    41.548    45.580
 HYBRID         0.262     0.385    -0.393     0.609
 SUM          -15.028    11.226    41.155    45.228


          ATOMIC ORBITAL ELECTRON POPULATIONS

     Atom    s        px        py        pz      x^2-y^2     xz        z^2       yz        xy
    1 Co   0.99094   0.03373   0.05432   0.04206   1.84810   1.73646   1.50463   1.15244   1.08795
    2  C   1.17214   0.70858   0.97903   0.88739
    3  H   0.90739
    4  O   1.87907   1.48454   1.75837   1.41876
    5  N   1.63321   1.11873   1.29587   1.50041
    6  C   1.07321   0.82265   0.90464   0.89057
    7  C   1.07308   0.90199   0.85057   0.88087
    8  N   1.84132   1.13621   1.17423   1.19913
    9  N   1.84215   1.16908   1.15778   1.20149
   10  N   1.71961   1.30960   1.50670   1.08874
   11  C   1.06973   0.83157   0.85911   0.89537
   12  C   1.06960   0.88780   0.88165   0.81797
   13  N   1.84745   1.22097   1.27823   1.18224
   14  N   1.84763   1.21771   1.27740   1.19093
   15  N   1.62084   1.33752   1.21672   1.39826
   16  C   1.07002   0.90849   0.83508   0.88802
   17  C   1.07139   0.86393   0.90817   0.87581
   18  N   1.84186   1.15901   1.14361   1.19389
   19  N   1.84234   1.14908   1.17378   1.18906
   20  N   1.71913   1.62739   1.13171   1.14733
   21  C   1.06947   0.87586   0.89834   0.81291
   22  C   1.06956   0.87574   0.81296   0.89768
   23  N   1.84763   1.30988   1.18288   1.19178
   24  N   1.84748   1.30841   1.19019   1.18366


                    (SZ)    =    0.500000
                    (S**2)  =    0.754625


          ATOMIC ORBITAL SPIN POPULATIONS

    Atom   Total    s     px     py     pz   x^2-y^2  xz     z^2    yz     xy
         Atomic
    1 Co  1.0427  0.066  0.000  0.000 -0.000  0.118  0.119  0.022  0.463  0.255
    2  C -0.0263 -0.006 -0.006 -0.005 -0.011
    3  H -0.0007 -0.001
    4  O -0.0211 -0.001 -0.015 -0.001 -0.005
    5  N -0.0096 -0.002 -0.003 -0.006  0.002
    6  C  0.0012  0.000  0.000  0.001 -0.000
    7  C -0.0003  0.001 -0.001  0.000 -0.001
    8  N  0.0028  0.000  0.002 -0.000  0.001
    9  N  0.0005  0.000 -0.000 -0.001  0.002
   10  N  0.0000  0.000 -0.000  0.000  0.000
   11  C  0.0000 -0.000  0.000  0.000  0.000
   12  C -0.0000  0.000  0.000 -0.000 -0.000
   13  N  0.0000 -0.000 -0.000  0.000  0.000
   14  N -0.0000 -0.000 -0.000  0.000  0.000
   15  N -0.0040  0.006 -0.005 -0.002 -0.002
   16  C  0.0035  0.001 -0.000  0.003 -0.000
   17  C  0.0057  0.002 -0.001  0.000  0.004
   18  N  0.0032 -0.000 -0.000 -0.001  0.005
   19  N  0.0024  0.000  0.001  0.003 -0.001
   20  N -0.0000  0.000 -0.000  0.000 -0.000
   21  C  0.0000  0.000  0.000  0.000 -0.000
   22  C -0.0001 -0.000 -0.000 -0.000 -0.000
   23  N  0.0001  0.000  0.000  0.000  0.000
   24  N  0.0000  0.000  0.000  0.000 -0.000

 **********************
 *                    *
 * JOB ENDED NORMALLY *
 *                    *
 **********************



 TOTAL JOB TIME:             7.20 SECONDS

 == MOPAC DONE ==
