 *******************************************************************************
 ** Site#: 26130        For non-commercial use only     Version 16.299L 64BITS**
 *******************************************************************************
 ** Cite this program as: MOPAC2016, Version: 16.299L, James J. P. Stewart,   **
 ** Stewart Computational Chemistry, web: HTTP://OpenMOPAC.net. Days left: 350**
 *******************************************************************************
 **                                                                           **
 **                                MOPAC2016                                  **
 **                                                                           **
 *******************************************************************************

                              PM7 CALCULATION RESULTS


 *******************************************************************************
 *  CALCULATION DONE:                                Thu Nov 10 16:00:45 2016  *
 *  PM7        - The PM7 Hamiltonian to be used
 *  DOUBLET    - SPIN STATE DEFINED AS A DOUBLET
 *  UHF        - UNRESTRICTED HARTREE-FOCK CALCULATION
 *  XYZ        - CARTESIAN COORDINATE SYSTEM TO BE USED
 *  EF         - USE EF ROUTINE FOR MINIMUM SEARCH
 *  T=         - A TIME OF 172800.0 SECONDS REQUESTED
 *  DUMP=N     - RESTART FILE WRITTEN EVERY  7200.000 SECONDS
 *  HESSIAN    - WRITE OUT HESSIAN FROM GEOMERY OPTIMIZATION
 *******************************************************************************
 EF PM7 XYZ HESSIAN DOUBLET UHF
 1007_M42_2

   ATOM   CHEMICAL          X               Y               Z
  NUMBER   SYMBOL      (ANGSTROMS)     (ANGSTROMS)     (ANGSTROMS)
 
     1      Mn          0.00000000  *   0.00000000  *   0.00000000  *
     2       P          0.00000000  *   2.45000000  *   0.00000000  *
     3       H         -0.99632000  *   2.91000400  *   0.83674500  *
     4       H          1.22283600  *   2.91002200  *   0.44448900  *
     5       H         -0.22651600  *   2.90996100  *  -1.28123400  *
     6       P          2.45000000  *   0.00000000  *   0.00000000  *
     7       H          2.91000400  *   1.28587500  *   0.19829900  *
     8       H          2.91002200  *  -0.81468600  *   1.01448800  *
     9       H          2.90996100  *  -0.47118900  *  -1.21278600  *
    10       P          0.00000000  *  -2.45000000  *   0.00000000  *
    11       H          1.29909400  *  -2.91000400  *   0.07177300  *
    12       H         -0.71171700  *  -2.91002200  *   1.08920000  *
    13       H         -0.58737600  *  -2.90996100  *  -1.16097300  *
    14       P         -2.45000000  *   0.00000000  *   0.00000000  *
    15       H         -2.91000400  *  -1.29657500  *  -0.10811700  *
    16       H         -2.91002200  *   0.55466300  *   1.17696500  *
    17       H         -2.90996100  *   0.74191200  *  -1.06884800  *
    18       C          0.00000000  *   0.00000000  *  -2.01000000  *
    19       C          0.50141300  *   1.28852300  *  -2.49309000  *
    20       C         -1.36663100  *  -0.21003200  *  -2.49326900  *
    21       C          0.86521700  *  -1.07849300  *  -2.49339000  *
    22       N          1.54918200  *  -1.93106400  *  -2.87434500  *
    23       N         -2.44690700  *  -0.37605500  *  -2.87407400  *
    24       N          0.89776800  *   2.30720000  *  -2.87387300  *
    25       S         -0.01717400  *  -0.03343400  *   2.40787200  *
    26       C         -0.01717400  *  -0.03343400  *   4.22526000  *
    27       C         -0.66919000  *  -1.30277300  *   4.75219400  *
    28       H         -0.66360400  *  -1.29197900  *   5.86243300  *
    29       H         -0.10954700  *  -2.19516500  *   4.39985200  *
    30       H         -1.72057100  *  -1.36768500  *   4.39985300  *
    31       H         -0.57765400  *   0.85380900  *   4.58822100  *
    32       H          1.03042700  *   0.02781300  *   4.58824200  *
 


          CARTESIAN COORDINATES 

    NO.       ATOM         X         Y         Z

     1        Mn        0.0000    0.0000    0.0000
     2         P        0.0000    2.4500    0.0000
     3         H       -0.9963    2.9100    0.8367
     4         H        1.2228    2.9100    0.4445
     5         H       -0.2265    2.9100   -1.2812
     6         P        2.4500    0.0000    0.0000
     7         H        2.9100    1.2859    0.1983
     8         H        2.9100   -0.8147    1.0145
     9         H        2.9100   -0.4712   -1.2128
    10         P        0.0000   -2.4500    0.0000
    11         H        1.2991   -2.9100    0.0718
    12         H       -0.7117   -2.9100    1.0892
    13         H       -0.5874   -2.9100   -1.1610
    14         P       -2.4500    0.0000    0.0000
    15         H       -2.9100   -1.2966   -0.1081
    16         H       -2.9100    0.5547    1.1770
    17         H       -2.9100    0.7419   -1.0688
    18         C        0.0000    0.0000   -2.0100
    19         C        0.5014    1.2885   -2.4931
    20         C       -1.3666   -0.2100   -2.4933
    21         C        0.8652   -1.0785   -2.4934
    22         N        1.5492   -1.9311   -2.8743
    23         N       -2.4469   -0.3761   -2.8741
    24         N        0.8978    2.3072   -2.8739
    25         S       -0.0172   -0.0334    2.4079
    26         C       -0.0172   -0.0334    4.2253
    27         C       -0.6692   -1.3028    4.7522
    28         H       -0.6636   -1.2920    5.8624
    29         H       -0.1095   -2.1952    4.3999
    30         H       -1.7206   -1.3677    4.3999
    31         H       -0.5777    0.8538    4.5882
    32         H        1.0304    0.0278    4.5882

 General Reference for PM7:
 "Optimization of Parameters for Semiempirical Methods VI: More Modifications to the 
 NDDO Approximations and Re-optimization of Parameters", J. J. P. Stewart, J. Mol. Mod., 1:32, 19 (2013)
 http://www.springerlink.com/openurl.asp?genre=article&id=doi:10.1007/s00894-012-1667-x

           Empirical Formula: C6 H17 N3 Mn P4 S  =    32 atoms



      MOLECULAR POINT GROUP   :   C1  


 DOUBLET STATE CALCULATION


          UHF CALCULATION, NO. OF ALPHA ELECTRONS =   45
                           NO. OF BETA  ELECTRONS =   44

          Geometry optimization using EF

          DIAGONAL MATRIX USED AS START HESSIAN

 CYCLE:     1 TIME:   0.277 TIME LEFT:  2.00D  GRAD.:   367.908 HEAT:  351.1695
 CYCLE:     2 TIME:   0.066 TIME LEFT:  2.00D  GRAD.:   284.907 HEAT:  291.8368
 CYCLE:     3 TIME:   0.070 TIME LEFT:  2.00D  GRAD.:   793.357 HEAT:  275.3656
 CYCLE:     4 TIME:   0.066 TIME LEFT:  2.00D  GRAD.:   134.020 HEAT:  209.5062
 CYCLE:     5 TIME:   0.078 TIME LEFT:  2.00D  GRAD.:   495.410 HEAT:  207.2019
 CYCLE:     6 TIME:   0.078 TIME LEFT:  2.00D  GRAD.:   641.673 HEAT:  203.2415
 CYCLE:     7 TIME:   0.078 TIME LEFT:  2.00D  GRAD.:   214.768 HEAT:  168.6942
 CYCLE:     8 TIME:   0.203 TIME LEFT:  2.00D  GRAD.:   233.196 HEAT:  158.9010
 CYCLE:     9 TIME:   0.078 TIME LEFT:  2.00D  GRAD.:   329.556 HEAT:  157.0559
 CYCLE:    10 TIME:   0.074 TIME LEFT:  2.00D  GRAD.:   131.150 HEAT:  144.2403
 CYCLE:    11 TIME:   0.070 TIME LEFT:  2.00D  GRAD.:   184.061 HEAT:  138.4146
 CYCLE:    12 TIME:   0.062 TIME LEFT:  2.00D  GRAD.:   131.303 HEAT:  128.9185
 CYCLE:    13 TIME:   0.090 TIME LEFT:  2.00D  GRAD.:   210.195 HEAT:  123.3348
 CYCLE:    14 TIME:   0.070 TIME LEFT:  2.00D  GRAD.:   206.606 HEAT:  114.1013
 CYCLE:    15 TIME:   0.074 TIME LEFT:  2.00D  GRAD.:   242.260 HEAT:  112.6193
 CYCLE:    16 TIME:   0.133 TIME LEFT:  2.00D  GRAD.:   164.964 HEAT:  104.6861
 CYCLE:    17 TIME:   0.188 TIME LEFT:  2.00D  GRAD.:   107.996 HEAT:  101.7969
 CYCLE:    18 TIME:   0.059 TIME LEFT:  2.00D  GRAD.:    23.639 HEAT:  99.79866
 CYCLE:    19 TIME:   0.059 TIME LEFT:  2.00D  GRAD.:    42.956 HEAT:  98.16851
 CYCLE:    20 TIME:   0.062 TIME LEFT:  2.00D  GRAD.:    35.800 HEAT:  95.72226
 CYCLE:    21 TIME:   0.078 TIME LEFT:  2.00D  GRAD.:    63.938 HEAT:  92.90531
 CYCLE:    22 TIME:   0.070 TIME LEFT:  2.00D  GRAD.:    62.052 HEAT:  88.93699
 CYCLE:    23 TIME:   0.148 TIME LEFT:  2.00D  GRAD.:    74.728 HEAT:  88.54845
 CYCLE:    24 TIME:   0.062 TIME LEFT:  2.00D  GRAD.:    31.870 HEAT:  85.32722
 CYCLE:    25 TIME:   0.191 TIME LEFT:  2.00D  GRAD.:    41.890 HEAT:  85.08338
 CYCLE:    26 TIME:   0.070 TIME LEFT:  2.00D  GRAD.:    35.599 HEAT:  84.30982
 CYCLE:    27 TIME:   0.059 TIME LEFT:  2.00D  GRAD.:    50.493 HEAT:  84.27713
 CYCLE:    28 TIME:   0.062 TIME LEFT:  2.00D  GRAD.:    36.810 HEAT:  83.33740
 CYCLE:    29 TIME:   0.066 TIME LEFT:  2.00D  GRAD.:    55.598 HEAT:  83.32455
 CYCLE:    30 TIME:   0.062 TIME LEFT:  2.00D  GRAD.:    42.286 HEAT:  82.23180
 CYCLE:    31 TIME:   0.070 TIME LEFT:  2.00D  GRAD.:    51.115 HEAT:  81.97755
 CYCLE:    32 TIME:   0.059 TIME LEFT:  2.00D  GRAD.:    40.839 HEAT:  81.11751
 CYCLE:    33 TIME:   0.129 TIME LEFT:  2.00D  GRAD.:    49.176 HEAT:  81.00177
 CYCLE:    34 TIME:   0.059 TIME LEFT:  2.00D  GRAD.:    29.987 HEAT:  80.27272
 CYCLE:    35 TIME:   0.117 TIME LEFT:  2.00D  GRAD.:    42.778 HEAT:  80.07768
 CYCLE:    36 TIME:   0.066 TIME LEFT:  2.00D  GRAD.:    20.874 HEAT:  79.55392
 CYCLE:    37 TIME:   0.059 TIME LEFT:  2.00D  GRAD.:    36.090 HEAT:  79.34844
 CYCLE:    38 TIME:   0.059 TIME LEFT:  2.00D  GRAD.:    20.056 HEAT:  78.68594
 CYCLE:    39 TIME:   0.066 TIME LEFT:  2.00D  GRAD.:    50.929 HEAT:  78.14387
 CYCLE:    40 TIME:   0.062 TIME LEFT:  2.00D  GRAD.:    25.228 HEAT:  77.07463
 CYCLE:    41 TIME:   0.066 TIME LEFT:  2.00D  GRAD.:    37.651 HEAT:  76.67716
 CYCLE:    42 TIME:   0.066 TIME LEFT:  2.00D  GRAD.:    32.021 HEAT:  76.09030
 CYCLE:    43 TIME:   0.059 TIME LEFT:  2.00D  GRAD.:    37.793 HEAT:  75.82024
 CYCLE:    44 TIME:   0.059 TIME LEFT:  2.00D  GRAD.:    23.763 HEAT:  75.35864
 CYCLE:    45 TIME:   0.062 TIME LEFT:  2.00D  GRAD.:    35.504 HEAT:  75.12029
 CYCLE:    46 TIME:   0.062 TIME LEFT:  2.00D  GRAD.:    26.969 HEAT:  74.58593
 CYCLE:    47 TIME:   0.066 TIME LEFT:  2.00D  GRAD.:    52.963 HEAT:  74.01338
 CYCLE:    48 TIME:   0.066 TIME LEFT:  2.00D  GRAD.:    23.624 HEAT:  73.16730
 CYCLE:    49 TIME:   0.078 TIME LEFT:  2.00D  GRAD.:    26.955 HEAT:  72.60224
 CYCLE:    50 TIME:   0.070 TIME LEFT:  2.00D  GRAD.:    31.279 HEAT:  72.33145
 CYCLE:    51 TIME:   0.062 TIME LEFT:  2.00D  GRAD.:    28.245 HEAT:  72.20626
 CYCLE:    52 TIME:   0.059 TIME LEFT:  2.00D  GRAD.:    33.607 HEAT:  72.09023
 CYCLE:    53 TIME:   0.066 TIME LEFT:  2.00D  GRAD.:    29.527 HEAT:  71.65359
 CYCLE:    54 TIME:   0.066 TIME LEFT:  2.00D  GRAD.:    26.106 HEAT:  71.60928
 CYCLE:    55 TIME:   0.059 TIME LEFT:  2.00D  GRAD.:    10.986 HEAT:  71.28418
 CYCLE:    56 TIME:   0.059 TIME LEFT:  2.00D  GRAD.:    19.888 HEAT:  71.21268
 CYCLE:    57 TIME:   0.055 TIME LEFT:  2.00D  GRAD.:    14.647 HEAT:  71.02033
 CYCLE:    58 TIME:   0.066 TIME LEFT:  2.00D  GRAD.:    27.588 HEAT:  70.89123
 CYCLE:    59 TIME:   0.059 TIME LEFT:  2.00D  GRAD.:    17.697 HEAT:  70.56229
 CYCLE:    60 TIME:   0.059 TIME LEFT:  2.00D  GRAD.:    21.344 HEAT:  70.40366
 CYCLE:    61 TIME:   0.059 TIME LEFT:  2.00D  GRAD.:    15.763 HEAT:  70.11856
 CYCLE:    62 TIME:   0.062 TIME LEFT:  2.00D  GRAD.:    46.116 HEAT:  69.99742
 CYCLE:    63 TIME:   0.066 TIME LEFT:  2.00D  GRAD.:    26.490 HEAT:  69.65178
 CYCLE:    64 TIME:   0.059 TIME LEFT:  2.00D  GRAD.:    20.544 HEAT:  69.44011
 CYCLE:    65 TIME:   0.059 TIME LEFT:  2.00D  GRAD.:    13.824 HEAT:  69.26302
 CYCLE:    66 TIME:   0.062 TIME LEFT:  2.00D  GRAD.:    21.574 HEAT:  69.06059
 CYCLE:    67 TIME:   0.062 TIME LEFT:  2.00D  GRAD.:    15.762 HEAT:  68.80016
 CYCLE:    68 TIME:   0.074 TIME LEFT:  2.00D  GRAD.:    17.784 HEAT:  68.60067
 CYCLE:    69 TIME:   0.062 TIME LEFT:  2.00D  GRAD.:    15.718 HEAT:  68.42185
 CYCLE:    70 TIME:   0.070 TIME LEFT:  2.00D  GRAD.:    13.824 HEAT:  68.23871
 CYCLE:    71 TIME:   0.078 TIME LEFT:  2.00D  GRAD.:    14.063 HEAT:  67.96974
 CYCLE:    72 TIME:   0.113 TIME LEFT:  2.00D  GRAD.:    17.583 HEAT:  67.09977
 CYCLE:    73 TIME:   0.066 TIME LEFT:  2.00D  GRAD.:    21.127 HEAT:  66.69026
 CYCLE:    74 TIME:   0.066 TIME LEFT:  2.00D  GRAD.:    23.860 HEAT:  66.31446
 CYCLE:    75 TIME:   0.062 TIME LEFT:  2.00D  GRAD.:    21.693 HEAT:  65.82986
 CYCLE:    76 TIME:   0.066 TIME LEFT:  2.00D  GRAD.:    26.258 HEAT:  65.37402
 CYCLE:    77 TIME:   0.062 TIME LEFT:  2.00D  GRAD.:    37.526 HEAT:  64.90485
 CYCLE:    78 TIME:   0.082 TIME LEFT:  2.00D  GRAD.:    69.222 HEAT:  63.06129
 CYCLE:    79 TIME:   0.090 TIME LEFT:  2.00D  GRAD.:   113.852 HEAT:  60.43629
 CYCLE:    80 TIME:   0.234 TIME LEFT:  2.00D  GRAD.:    97.216 HEAT:  59.00351
 CYCLE:    81 TIME:   0.090 TIME LEFT:  2.00D  GRAD.:   113.390 HEAT:  55.06832
 CYCLE:    82 TIME:   0.074 TIME LEFT:  2.00D  GRAD.:   100.437 HEAT:  52.13703
 CYCLE:    83 TIME:   0.070 TIME LEFT:  2.00D  GRAD.:    77.833 HEAT:  50.05634
 CYCLE:    84 TIME:   0.137 TIME LEFT:  2.00D  GRAD.:    67.305 HEAT:  49.31108
 CYCLE:    85 TIME:   0.070 TIME LEFT:  2.00D  GRAD.:    71.183 HEAT:  49.06153
 CYCLE:    86 TIME:   0.070 TIME LEFT:  2.00D  GRAD.:    49.641 HEAT:  47.57905
 CYCLE:    87 TIME:   0.070 TIME LEFT:  2.00D  GRAD.:    44.941 HEAT:  46.99276
 CYCLE:    88 TIME:   0.066 TIME LEFT:  2.00D  GRAD.:    31.278 HEAT:  46.44751
 CYCLE:    89 TIME:   0.062 TIME LEFT:  2.00D  GRAD.:    22.651 HEAT:  45.95994
 CYCLE:    90 TIME:   0.070 TIME LEFT:  2.00D  GRAD.:    16.212 HEAT:  45.48145
 CYCLE:    91 TIME:   0.074 TIME LEFT:  2.00D  GRAD.:    14.005 HEAT:  45.07140
 CYCLE:    92 TIME:   0.074 TIME LEFT:  2.00D  GRAD.:     8.978 HEAT:  44.87987
 CYCLE:    93 TIME:   0.059 TIME LEFT:  2.00D  GRAD.:     9.913 HEAT:  44.73074
 CYCLE:    94 TIME:   0.062 TIME LEFT:  2.00D  GRAD.:     7.934 HEAT:  44.56635
 CYCLE:    95 TIME:   0.066 TIME LEFT:  2.00D  GRAD.:     9.081 HEAT:  44.38835
 CYCLE:    96 TIME:   0.059 TIME LEFT:  2.00D  GRAD.:    10.261 HEAT:  44.24615
 CYCLE:    97 TIME:   0.059 TIME LEFT:  2.00D  GRAD.:    11.029 HEAT:  44.00582
 CYCLE:    98 TIME:   0.059 TIME LEFT:  2.00D  GRAD.:     9.260 HEAT:  43.78745
 CYCLE:    99 TIME:   0.059 TIME LEFT:  2.00D  GRAD.:     9.463 HEAT:  43.64445
 CYCLE:   100 TIME:   0.062 TIME LEFT:  2.00D  GRAD.:    10.894 HEAT:  43.51606
 CYCLE:   101 TIME:   0.059 TIME LEFT:  2.00D  GRAD.:    14.874 HEAT:  43.35352
 CYCLE:   102 TIME:   0.059 TIME LEFT:  2.00D  GRAD.:    12.392 HEAT:  43.16174
 CYCLE:   103 TIME:   0.059 TIME LEFT:  2.00D  GRAD.:    12.721 HEAT:  42.91858
 CYCLE:   104 TIME:   0.062 TIME LEFT:  2.00D  GRAD.:    17.335 HEAT:  42.71663
 CYCLE:   105 TIME:   0.059 TIME LEFT:  2.00D  GRAD.:    17.577 HEAT:  42.56931
 CYCLE:   106 TIME:   0.059 TIME LEFT:  2.00D  GRAD.:    14.362 HEAT:  42.41457
 CYCLE:   107 TIME:   0.059 TIME LEFT:  2.00D  GRAD.:     8.105 HEAT:  42.30957
 CYCLE:   108 TIME:   0.062 TIME LEFT:  2.00D  GRAD.:     7.019 HEAT:  42.22392
 CYCLE:   109 TIME:   0.062 TIME LEFT:  2.00D  GRAD.:     9.659 HEAT:  42.15342
 CYCLE:   110 TIME:   0.062 TIME LEFT:  2.00D  GRAD.:     7.393 HEAT:  42.08828
 CYCLE:   111 TIME:   0.059 TIME LEFT:  2.00D  GRAD.:     5.979 HEAT:  42.05399
 CYCLE:   112 TIME:   0.059 TIME LEFT:  2.00D  GRAD.:     6.167 HEAT:  42.02106
 CYCLE:   113 TIME:   0.059 TIME LEFT:  2.00D  GRAD.:     4.865 HEAT:  41.98561
 CYCLE:   114 TIME:   0.059 TIME LEFT:  2.00D  GRAD.:     5.108 HEAT:  41.93374
 CYCLE:   115 TIME:   0.059 TIME LEFT:  2.00D  GRAD.:     6.695 HEAT:  41.85650
 CYCLE:   116 TIME:   0.059 TIME LEFT:  2.00D  GRAD.:     6.587 HEAT:  41.79356
 CYCLE:   117 TIME:   0.059 TIME LEFT:  2.00D  GRAD.:     6.638 HEAT:  41.72472
 CYCLE:   118 TIME:   0.059 TIME LEFT:  2.00D  GRAD.:     6.748 HEAT:  41.65681
 CYCLE:   119 TIME:   0.059 TIME LEFT:  2.00D  GRAD.:     9.847 HEAT:  41.64348
 CYCLE:   120 TIME:   0.062 TIME LEFT:  2.00D  GRAD.:     6.943 HEAT:  41.55997
 CYCLE:   121 TIME:   0.055 TIME LEFT:  2.00D  GRAD.:     4.338 HEAT:  41.51580
 CYCLE:   122 TIME:   0.062 TIME LEFT:  2.00D  GRAD.:     7.502 HEAT:  41.45246
 CYCLE:   123 TIME:   0.059 TIME LEFT:  2.00D  GRAD.:     5.450 HEAT:  41.40944
 CYCLE:   124 TIME:   0.066 TIME LEFT:  2.00D  GRAD.:     3.985 HEAT:  41.36980
 CYCLE:   125 TIME:   0.082 TIME LEFT:  2.00D  GRAD.:     4.638 HEAT:  41.32693
 CYCLE:   126 TIME:   0.086 TIME LEFT:  2.00D  GRAD.:     5.641 HEAT:  41.28547
 CYCLE:   127 TIME:   0.082 TIME LEFT:  2.00D  GRAD.:     5.578 HEAT:  41.24482
 CYCLE:   128 TIME:   0.082 TIME LEFT:  2.00D  GRAD.:     6.843 HEAT:  41.21249
 CYCLE:   129 TIME:   0.074 TIME LEFT:  2.00D  GRAD.:     4.455 HEAT:  41.18641
 CYCLE:   130 TIME:   0.082 TIME LEFT:  2.00D  GRAD.:     3.324 HEAT:  41.16333
 CYCLE:   131 TIME:   0.074 TIME LEFT:  2.00D  GRAD.:     3.478 HEAT:  41.14111
 CYCLE:   132 TIME:   0.059 TIME LEFT:  2.00D  GRAD.:     2.724 HEAT:  41.12026
 CYCLE:   133 TIME:   0.062 TIME LEFT:  2.00D  GRAD.:     2.522 HEAT:  41.09505
 CYCLE:   134 TIME:   0.059 TIME LEFT:  2.00D  GRAD.:     2.092 HEAT:  41.07678
 CYCLE:   135 TIME:   0.082 TIME LEFT:  2.00D  GRAD.:     8.428 HEAT:  40.98662
 CYCLE:   136 TIME:   0.059 TIME LEFT:  2.00D  GRAD.:     7.146 HEAT:  40.93032
 CYCLE:   137 TIME:   0.059 TIME LEFT:  2.00D  GRAD.:     7.626 HEAT:  40.83714
 CYCLE:   138 TIME:   0.062 TIME LEFT:  2.00D  GRAD.:     7.447 HEAT:  40.68705
 CYCLE:   139 TIME:   0.074 TIME LEFT:  2.00D  GRAD.:    22.538 HEAT:  40.52689
 CYCLE:   140 TIME:   0.059 TIME LEFT:  2.00D  GRAD.:     6.149 HEAT:  40.40706
 CYCLE:   141 TIME:   0.059 TIME LEFT:  2.00D  GRAD.:     5.901 HEAT:  40.25932
 CYCLE:   142 TIME:   0.062 TIME LEFT:  2.00D  GRAD.:     7.398 HEAT:  40.18438
 CYCLE:   143 TIME:   0.059 TIME LEFT:  2.00D  GRAD.:     7.245 HEAT:  40.11171
 CYCLE:   144 TIME:   0.059 TIME LEFT:  2.00D  GRAD.:     7.796 HEAT:  39.95712
 CYCLE:   145 TIME:   0.059 TIME LEFT:  2.00D  GRAD.:     8.908 HEAT:  39.83221
 CYCLE:   146 TIME:   0.059 TIME LEFT:  2.00D  GRAD.:    10.686 HEAT:  39.65056
 CYCLE:   147 TIME:   0.059 TIME LEFT:  2.00D  GRAD.:    13.241 HEAT:  39.48530
 CYCLE:   148 TIME:   0.059 TIME LEFT:  2.00D  GRAD.:    10.258 HEAT:  39.32142
 CYCLE:   149 TIME:   0.059 TIME LEFT:  2.00D  GRAD.:     9.116 HEAT:  39.14109
 CYCLE:   150 TIME:   0.062 TIME LEFT:  2.00D  GRAD.:    10.768 HEAT:  39.03102
 CYCLE:   151 TIME:   0.062 TIME LEFT:  2.00D  GRAD.:    12.432 HEAT:  38.95681
 CYCLE:   152 TIME:   0.059 TIME LEFT:  2.00D  GRAD.:     8.400 HEAT:  38.83369
 CYCLE:   153 TIME:   0.055 TIME LEFT:  2.00D  GRAD.:     4.544 HEAT:  38.76659
 CYCLE:   154 TIME:   0.059 TIME LEFT:  2.00D  GRAD.:     4.393 HEAT:  38.69635
 CYCLE:   155 TIME:   0.062 TIME LEFT:  2.00D  GRAD.:     6.094 HEAT:  38.61617
 CYCLE:   156 TIME:   0.059 TIME LEFT:  2.00D  GRAD.:     5.795 HEAT:  38.56462
 CYCLE:   157 TIME:   0.059 TIME LEFT:  2.00D  GRAD.:     6.213 HEAT:  38.45970
 CYCLE:   158 TIME:   0.059 TIME LEFT:  2.00D  GRAD.:     6.555 HEAT:  38.36905
 CYCLE:   159 TIME:   0.059 TIME LEFT:  2.00D  GRAD.:     8.759 HEAT:  38.23590
 CYCLE:   160 TIME:   0.059 TIME LEFT:  2.00D  GRAD.:     8.488 HEAT:  38.12333
 CYCLE:   161 TIME:   0.062 TIME LEFT:  2.00D  GRAD.:     5.014 HEAT:  38.01999
 CYCLE:   162 TIME:   0.059 TIME LEFT:  2.00D  GRAD.:     6.620 HEAT:  37.93407
 CYCLE:   163 TIME:   0.059 TIME LEFT:  2.00D  GRAD.:     6.801 HEAT:  37.89002
 CYCLE:   164 TIME:   0.059 TIME LEFT:  2.00D  GRAD.:     6.684 HEAT:  37.82318
 CYCLE:   165 TIME:   0.059 TIME LEFT:  2.00D  GRAD.:     4.637 HEAT:  37.75379
 CYCLE:   166 TIME:   0.059 TIME LEFT:  2.00D  GRAD.:     4.525 HEAT:  37.69972
 CYCLE:   167 TIME:   0.059 TIME LEFT:  2.00D  GRAD.:     5.582 HEAT:  37.64182
 CYCLE:   168 TIME:   0.250 TIME LEFT:  2.00D  GRAD.:     5.659 HEAT:  37.59367
 CYCLE:   169 TIME:   0.062 TIME LEFT:  2.00D  GRAD.:     5.236 HEAT:  37.54203
 CYCLE:   170 TIME:   0.059 TIME LEFT:  2.00D  GRAD.:     5.363 HEAT:  37.48436
 CYCLE:   171 TIME:   0.066 TIME LEFT:  2.00D  GRAD.:     4.867 HEAT:  37.43401
 CYCLE:   172 TIME:   0.059 TIME LEFT:  2.00D  GRAD.:     4.022 HEAT:  37.39399
 CYCLE:   173 TIME:   0.059 TIME LEFT:  2.00D  GRAD.:     2.584 HEAT:  37.36713
 CYCLE:   174 TIME:   0.062 TIME LEFT:  2.00D  GRAD.:     3.117 HEAT:  37.33653
 CYCLE:   175 TIME:   0.066 TIME LEFT:  2.00D  GRAD.:     4.290 HEAT:  37.30635
 CYCLE:   176 TIME:   0.059 TIME LEFT:  2.00D  GRAD.:     4.354 HEAT:  37.27643
 CYCLE:   177 TIME:   0.059 TIME LEFT:  2.00D  GRAD.:     3.385 HEAT:  37.24139
 CYCLE:   178 TIME:   0.059 TIME LEFT:  2.00D  GRAD.:     4.566 HEAT:  37.21495
 CYCLE:   179 TIME:   0.066 TIME LEFT:  2.00D  GRAD.:     4.253 HEAT:  37.19202
 CYCLE:   180 TIME:   0.055 TIME LEFT:  2.00D  GRAD.:     3.829 HEAT:  37.15541
 CYCLE:   181 TIME:   0.059 TIME LEFT:  2.00D  GRAD.:     4.641 HEAT:  37.11956
 CYCLE:   182 TIME:   0.062 TIME LEFT:  2.00D  GRAD.:     3.589 HEAT:  37.08647
 CYCLE:   183 TIME:   0.059 TIME LEFT:  2.00D  GRAD.:     2.377 HEAT:  37.05999
 CYCLE:   184 TIME:   0.062 TIME LEFT:  2.00D  GRAD.:     2.644 HEAT:  37.04149
 CYCLE:   185 TIME:   0.062 TIME LEFT:  2.00D  GRAD.:     2.330 HEAT:  37.02674
 CYCLE:   186 TIME:   0.059 TIME LEFT:  2.00D  GRAD.:     1.956 HEAT:  37.01098
 CYCLE:   187 TIME:   0.062 TIME LEFT:  2.00D  GRAD.:     3.889 HEAT:  36.99211
 CYCLE:   188 TIME:   0.055 TIME LEFT:  2.00D  GRAD.:     5.906 HEAT:  36.97778
 CYCLE:   189 TIME:   0.059 TIME LEFT:  2.00D  GRAD.:     3.359 HEAT:  36.95070
 CYCLE:   190 TIME:   0.059 TIME LEFT:  2.00D  GRAD.:     3.390 HEAT:  36.91936
 CYCLE:   191 TIME:   0.062 TIME LEFT:  2.00D  GRAD.:     4.997 HEAT:  36.88777
 CYCLE:   192 TIME:   0.055 TIME LEFT:  2.00D  GRAD.:     5.331 HEAT:  36.85454
 CYCLE:   193 TIME:   0.059 TIME LEFT:  2.00D  GRAD.:     4.034 HEAT:  36.80855
 CYCLE:   194 TIME:   0.059 TIME LEFT:  2.00D  GRAD.:     7.302 HEAT:  36.80057
 CYCLE:   195 TIME:   0.059 TIME LEFT:  2.00D  GRAD.:     3.833 HEAT:  36.74219
 CYCLE:   196 TIME:   0.055 TIME LEFT:  2.00D  GRAD.:     2.467 HEAT:  36.70374
 CYCLE:   197 TIME:   0.062 TIME LEFT:  2.00D  GRAD.:     3.990 HEAT:  36.66066
 CYCLE:   198 TIME:   0.055 TIME LEFT:  2.00D  GRAD.:     3.995 HEAT:  36.63605
 CYCLE:   199 TIME:   0.059 TIME LEFT:  2.00D  GRAD.:     3.923 HEAT:  36.59913
 CYCLE:   200 TIME:   0.059 TIME LEFT:  2.00D  GRAD.:     4.852 HEAT:  36.55594
 CYCLE:   201 TIME:   0.074 TIME LEFT:  2.00D  GRAD.:     3.670 HEAT:  36.51495
 CYCLE:   202 TIME:   0.066 TIME LEFT:  2.00D  GRAD.:     4.794 HEAT:  36.48703
 CYCLE:   203 TIME:   0.082 TIME LEFT:  2.00D  GRAD.:     4.475 HEAT:  36.46086
 CYCLE:   204 TIME:   0.078 TIME LEFT:  2.00D  GRAD.:     3.308 HEAT:  36.43844
 CYCLE:   205 TIME:   0.082 TIME LEFT:  2.00D  GRAD.:     3.838 HEAT:  36.40283
 CYCLE:   206 TIME:   0.082 TIME LEFT:  2.00D  GRAD.:     4.084 HEAT:  36.36840
 CYCLE:   207 TIME:   0.074 TIME LEFT:  2.00D  GRAD.:     4.760 HEAT:  36.32688
 CYCLE:   208 TIME:   0.078 TIME LEFT:  2.00D  GRAD.:     3.798 HEAT:  36.30266
 CYCLE:   209 TIME:   0.082 TIME LEFT:  2.00D  GRAD.:     2.692 HEAT:  36.28096
 CYCLE:   210 TIME:   0.082 TIME LEFT:  2.00D  GRAD.:     5.451 HEAT:  36.26694
 CYCLE:   211 TIME:   0.082 TIME LEFT:  2.00D  GRAD.:     3.766 HEAT:  36.24087
 CYCLE:   212 TIME:   0.070 TIME LEFT:  2.00D  GRAD.:     3.388 HEAT:  36.20996
 CYCLE:   213 TIME:   0.086 TIME LEFT:  2.00D  GRAD.:     2.712 HEAT:  36.17531
 CYCLE:   214 TIME:   0.082 TIME LEFT:  2.00D  GRAD.:     7.278 HEAT:  36.14329
 CYCLE:   215 TIME:   0.078 TIME LEFT:  2.00D  GRAD.:     2.623 HEAT:  36.12171
 CYCLE:   216 TIME:   0.082 TIME LEFT:  2.00D  GRAD.:     2.542 HEAT:  36.10522
 CYCLE:   217 TIME:   0.074 TIME LEFT:  2.00D  GRAD.:     5.437 HEAT:  36.08888
 CYCLE:   218 TIME:   0.082 TIME LEFT:  2.00D  GRAD.:     2.034 HEAT:  36.06486
 CYCLE:   219 TIME:   0.082 TIME LEFT:  2.00D  GRAD.:     1.551 HEAT:  36.05637
 CYCLE:   220 TIME:   0.113 TIME LEFT:  2.00D  GRAD.:     2.278 HEAT:  36.03097
 CYCLE:   221 TIME:   0.086 TIME LEFT:  2.00D  GRAD.:     1.543 HEAT:  36.02317
 CYCLE:   222 TIME:   0.078 TIME LEFT:  2.00D  GRAD.:     1.105 HEAT:  36.01590
 CYCLE:   223 TIME:   0.367 TIME LEFT:  2.00D  GRAD.:     1.803 HEAT:  35.99841
 CYCLE:   224 TIME:   0.059 TIME LEFT:  2.00D  GRAD.:     1.625 HEAT:  35.98673
 CYCLE:   225 TIME:   0.062 TIME LEFT:  2.00D  GRAD.:     1.247 HEAT:  35.97799
 CYCLE:   226 TIME:   0.184 TIME LEFT:  2.00D  GRAD.:     4.441 HEAT:  35.93303
 CYCLE:   227 TIME:   0.059 TIME LEFT:  2.00D  GRAD.:     3.008 HEAT:  35.91867
 CYCLE:   228 TIME:   0.062 TIME LEFT:  2.00D  GRAD.:     2.644 HEAT:  35.91023
 CYCLE:   229 TIME:   0.062 TIME LEFT:  2.00D  GRAD.:     1.254 HEAT:  35.90087
 CYCLE:   230 TIME:   0.070 TIME LEFT:  2.00D  GRAD.:     1.414 HEAT:  35.89360
 CYCLE:   231 TIME:   0.062 TIME LEFT:  2.00D  GRAD.:     0.935 HEAT:  35.88884

     GRADIENT =  0.93479  IS LESS THAN CUTOFF =  1.00000



 -------------------------------------------------------------------------------
 EF PM7 XYZ HESSIAN DOUBLET UHF
 1007_M42_2



     GEOMETRY OPTIMISED USING EIGENVECTOR FOLLOWING (EF).     
     SCF FIELD WAS ACHIEVED                                   


                              PM7 CALCULATION
                                                       MOPAC2016 (Version: 16.299L)
                                                       Thu Nov 10 16:01:02 2016
                                                       No. of days remaining = 350




          FINAL HEAT OF FORMATION =         35.88826 KCAL/MOL =     150.15647 KJ/MOL


          TOTAL ENERGY            =      -2634.80533 EV
          ELECTRONIC ENERGY       =     -15420.13521 EV  POINT GROUP:     C1  
          CORE-CORE REPULSION     =      12785.32988 EV
          COSMO AREA              =        313.55 SQUARE ANGSTROMS
          COSMO VOLUME            =        397.09 CUBIC ANGSTROMS

          GRADIENT NORM           =          0.93479
          IONIZATION POTENTIAL    =          9.249648 EV
          ALPHA SOMO LUMO (EV)    =         -9.250 -3.065
          BETA  SOMO LUMO (EV)    =         -9.391 -2.784
          NO. OF ALPHA ELECTRONS  =         45
          NO. OF BETA  ELECTRONS  =         44
          MOLECULAR WEIGHT        =        342.1134

          MOLECULAR DIMENSIONS (Angstroms)

            Atom       Atom       Distance
            N    22    H    28     8.94263
            H    17    H     7     8.80388
            H    12    H     4     8.19634


          SCF CALCULATIONS        =        248
 
          WALL-CLOCK TIME         =         16.922 SECONDS
          COMPUTATION TIME        =  1 MINUTE AND  3.399 SECONDS




   ATOM   CHEMICAL          X               Y               Z
  NUMBER   SYMBOL      (ANGSTROMS)     (ANGSTROMS)     (ANGSTROMS)
 
     1      Mn         -0.57797645  *  -0.54212874  *  -0.03960504  *
     2       P         -0.19510620  *   2.96643190  *   0.28777063  *
     3       H         -0.85181672  *   3.62906585  *   1.46035861  *
     4       H          1.06934652  *   3.76235434  *   0.16976137  *
     5       H         -1.00286297  *   3.52932043  *  -0.83771345  *
     6       P          2.91737070  *  -0.08773466  *   0.23809158  *
     7       H          4.28412305  *   0.26723751  *  -0.29025864  *
     8       H          2.72562155  *   1.01750146  *   1.22688123  *
     9       H          3.26631364  *  -1.22476773  *   1.14913030  *
    10       P          0.78428400  *  -3.66977226  *  -0.73642268  *
    11       H          2.25948855  *  -3.64432087  *  -0.96861439  *
    12       H          0.67104045  *  -4.71091148  *   0.33399250  *
    13       H          0.30245127  *  -4.42329492  *  -1.93494758  *
    14       P         -3.74190534  *   0.89654058  *  -0.19701184  *
    15       H         -4.08869329  *  -0.32790915  *   0.56958060  *
    16       H         -4.74832384  *   1.84340718  *   0.44400272  *
    17       H         -4.43906216  *   0.70569986  *  -1.49852049  *
    18       C          0.11989345  *  -0.01854448  *  -2.04979391  *
    19       C          0.83737722  *   1.21793573  *  -2.09705556  *
    20       C         -1.28138129  *  -0.03050439  *  -1.85527855  *
    21       C          0.78597579  *  -1.13115473  *  -2.65120285  *
    22       N          1.34116204  *  -2.05206522  *  -3.08429584  *
    23       N         -2.18771905  *  -0.13772876  *  -1.00285391  *
    24       N          1.41755361  *   2.22155773  *  -2.08697658  *
    25       S         -0.04229679  *  -1.14530223  *   1.99196050  *
    26       C         -0.22408907  *   0.28164617  *   3.19363149  *
    27       C         -0.08529994  *  -0.29609824  *   4.59240802  *
    28       H         -0.19867205  *   0.49521811  *   5.34843347  *
    29       H          0.89501722  *  -0.76173611  *   4.76320028  *
    30       H         -0.84902361  *  -1.05580770  *   4.81345997  *
    31       H         -1.20740096  *   0.77075743  *   3.07581682  *
    32       H          0.56087875  *   1.03248895  *   3.01061162  *

                             CARTESIAN COORDINATES

   1   Mn       -0.577976455    -0.542128738    -0.039605042
   2    P       -0.195106199     2.966431904     0.287770630
   3    H       -0.851816722     3.629065854     1.460358610
   4    H        1.069346516     3.762354343     0.169761372
   5    H       -1.002862974     3.529320431    -0.837713446
   6    P        2.917370696    -0.087734656     0.238091576
   7    H        4.284123052     0.267237515    -0.290258637
   8    H        2.725621550     1.017501464     1.226881234
   9    H        3.266313642    -1.224767734     1.149130296
  10    P        0.784283997    -3.669772257    -0.736422677
  11    H        2.259488548    -3.644320870    -0.968614386
  12    H        0.671040446    -4.710911476     0.333992501
  13    H        0.302451269    -4.423294917    -1.934947578
  14    P       -3.741905341     0.896540577    -0.197011839
  15    H       -4.088693292    -0.327909151     0.569580599
  16    H       -4.748323843     1.843407175     0.444002717
  17    H       -4.439062161     0.705699858    -1.498520494
  18    C        0.119893455    -0.018544484    -2.049793907
  19    C        0.837377223     1.217935729    -2.097055559
  20    C       -1.281381292    -0.030504395    -1.855278546
  21    C        0.785975792    -1.131154731    -2.651202848
  22    N        1.341162044    -2.052065216    -3.084295840
  23    N       -2.187719054    -0.137728760    -1.002853914
  24    N        1.417553607     2.221557732    -2.086976577
  25    S       -0.042296794    -1.145302226     1.991960495
  26    C       -0.224089071     0.281646168     3.193631494
  27    C       -0.085299944    -0.296098235     4.592408023
  28    H       -0.198672051     0.495218115     5.348433471
  29    H        0.895017219    -0.761736107     4.763200277
  30    H       -0.849023615    -1.055807704     4.813459974
  31    H       -1.207400959     0.770757428     3.075816820
  32    H        0.560878751     1.032488947     3.010611622


           Empirical Formula: C6 H17 N3 Mn P4 S  =    32 atoms

    Hessian matrix from geometry optimization
  747.0962
 -154.4941  321.2182
  342.7499 -343.9314 1503.4793
  -72.8642  -21.8759   16.1276  552.6741
  -56.7727  -48.4558    3.4524   38.9357  536.0656
  -35.4322   13.0452  -87.5261    0.1258   16.0854  520.2053
  -33.4336   10.0969   -3.3838 -110.3462   89.4601  139.1703  273.5203
   -7.9127   17.9913    5.6280   66.6568 -150.2945 -119.8315  -74.3307  165.7226
   20.1462   -7.5241   27.4887   89.2373 -151.9231 -258.7086 -182.0491  152.4143  419.2954
   37.3245    9.7200   -1.6412 -321.6588 -176.4677   25.2105   -6.7970   21.4626   17.1515  533.8615
   23.9754   22.2157    5.8697 -174.5433 -148.5968   16.5880   19.2256   14.2718   10.2294  172.2335
  172.0095
   24.8434    1.7715   11.8215  -26.2339   14.4641  -74.9917   31.7096   25.9748    2.5183    0.5667
   -9.8511  148.6007
   13.6593   -1.7641    7.3156 -111.2193   98.8319 -101.0564   35.5222  -19.8021  -13.9526  -26.4632
   -6.3055  -23.8225  262.7051
  -23.2074   16.3208    2.9231   57.6741 -115.3907  139.6212   -7.6700   12.2450  -24.6034    5.1460
   -2.9417   -4.6271  -73.0154  184.1682
   -4.5487   -8.6828    5.5523  -67.0824  135.3215 -257.3328  -32.1049    9.6503  -16.6075  -38.9864
  -12.5887   11.0654  169.6709 -145.5784  408.2741
 -130.7126   -4.2243   14.2644  -78.9114   31.8409   12.6607   30.1742  -35.9751  -35.3674   21.9754
   -2.2484   -8.6324   17.9238   -3.1478   11.4083  601.5052
  -37.5987  -48.1074   46.8667  142.0202  -51.5561    1.1305   41.0092    6.2048    4.1247  -38.2648
   -5.4872  -63.4726  -47.9583   16.5939  -24.2387   36.0170  669.4848
   -6.5346   24.5788 -154.5554   94.1832   70.6678 -128.3890   10.6246  -11.0276  -14.5381 -111.2768
  -40.8779    4.4483  107.4449  -89.0795   65.3664  -23.5193  -40.9479  820.5864
   80.9648   23.9118  -53.2689    2.2325  -17.0856  -19.4976  -13.2631   19.9499    7.1671  -14.1274
   -5.1716    9.8464  -11.8641  -11.1885  -25.3749 -380.8623 -146.9842   71.0139  478.4504
   88.3488   28.7897  -40.2294  -24.1822   -5.0052   -4.4451  -57.0028   45.4782   19.2984  -12.7515
  -17.0621   48.1686   -2.5974   15.1496  -27.0898 -110.6562 -260.2686   -9.5508  223.4399  361.7242
  -15.2060    8.5546  -20.0235   -8.3260   30.8906   -7.0148   -4.2256   -3.1575  -22.7289  -15.3195
   -7.5912    1.5924   13.3507   15.8249    5.9005   68.3242  -11.0554    4.4411 -139.1936  -40.5911
  202.3091
  -31.3981   -1.3773   -5.5691    0.7287   21.0546  -15.1489    9.5045  -11.8074   22.3098  -10.2921
    9.5849  -14.3044   -0.8068  -12.4216   41.3497  -74.3275   18.2811   19.5828  -29.3528  -43.4154
   53.8969  170.1597
  -55.2185    9.5272   12.7056  -26.6516  -19.5658   89.8566   19.4303   22.3742  -23.7151   37.8151
   -1.2759   -4.4866  -23.5833   37.1920  -45.1229   55.9475 -122.5086 -243.8131  -32.1634   24.3507
  -30.5279  -88.4603  462.8320
  -44.8101  -12.3852   68.6105  -73.5026  -51.0066   55.2889  -17.8849   46.0152   39.3919   88.5843
   50.9526  -36.5449  -82.6275   13.6393  -33.8518   14.7059  -73.9387 -557.8926   22.7539   11.4061
  -68.0656  -96.3588  295.7999  623.8025
    3.9442  -17.5599   12.3448   14.7507  -43.2935   19.5301    2.8267    3.0250  -32.7417   36.3525
   -1.0941   -3.6319   14.2131  -21.6133  -41.1859  -69.0065  107.1006  -10.1927   14.3278  -73.3273
    6.5143  -30.4665   51.6598   18.0240  164.5889
  -45.0267   30.3606  -25.2161  -32.8536   74.4351  -87.3068  -56.1890  -35.9622   35.2807  -54.5288
   -0.4819   28.6525   36.2526    3.1122   61.5122   12.5860 -342.8229  274.7441   -9.7710  -36.9193
   81.7076  130.5104 -280.9390 -181.4142 -141.6162  794.2849
    9.5781  -12.0338   46.4942  -15.3740  -33.0037   14.7976  -18.8445   26.8768   34.7554   47.9269
    2.9082   19.3102  -25.4511   34.4881  -14.0071  -41.2603  121.3256 -319.4894   25.1284   72.6049
  -32.2389   -5.3867    4.7232  172.7199   -3.5853 -188.9050  275.8346
 -102.8919   29.4480   -5.6420   67.0635   13.7044   -2.3749  -10.5473    1.7044    5.7028  -41.3074
  -28.3400    7.7748   -8.0926    3.6710    1.9049  -84.4729 -152.9823  -54.7792   38.8325    1.4353
   -8.0989   13.4803  -27.0696   34.8612  -29.7912   91.5304  -22.8635  499.5310
   15.2392  -94.8766   44.3425   10.4996  -77.1392   -1.1298  -21.0719   26.6317   10.6205   22.5673
    0.4860  -10.1210  -30.6136    3.7974  -30.5037    5.9940  -79.8528  -67.5535   16.6826   14.1856
    7.9258  -15.7079   70.5536   59.3600   21.3642  -73.2572    7.5537  -18.4360  494.4862
   25.1553    1.4876 -131.1123    7.7913  -10.5492   92.1381   24.2727   -4.4693  -12.7049    2.5265
    2.8426   -1.1142  -37.6252   27.4892  -20.1220   -4.8390  -16.1056 -121.9186  -16.4982   19.9700
  -25.3806  -19.3125   66.7117   49.5050  -24.4190  -67.1407   13.1218    4.0750   37.9167  490.5472
   81.8196  -19.6556  -51.9569  -70.1734  -64.1059   -0.1943  -17.6551   12.1187   22.5936   34.6441
   12.4227  -15.9510  -29.2906   11.8343  -21.2890   50.1688   84.0390  -40.3170  -11.3141   38.1456
   10.3637  -16.8031  103.4206   34.7575   23.3473 -127.4472   19.5789 -421.4549   77.5305   59.4935
  665.3354
  -15.9517    5.9806   -7.1421    9.4731    4.3075   -4.4385    0.8871   22.0332    4.8317  -11.0746
   -0.3771  -15.8519  -14.2723  -11.0750   -5.5390  -12.4515   -2.9882  -16.1442   25.8736    7.4438
   13.4875   -2.4530   -6.4842   50.4144   -7.1996    0.9043    5.0846   71.0417  -46.2828   -8.7080
  -31.2519  104.3314
   -6.8843    4.7238   10.4332    2.5861   -0.3854   -1.8645    8.0697    6.6925    4.5595    6.1884
   13.0793  -20.3846  -12.7095  -14.4861    5.6305    1.3948    6.6717  -35.7593    4.8546   -6.0127
    2.9591  -15.2215   32.4075   63.5285   -0.1413  -54.5810   17.7528   20.6868    5.1846  -83.8437
  -38.1643   -6.8447  167.7992
   13.2864   14.6242  -22.1272   -4.9614    7.9040  -12.9969    4.4298   -5.6039    2.9016  -10.4972
   -0.0375   -0.2216    4.2333    9.0684   14.5505  -16.1969   30.9858   26.7796    4.0329  -10.5409
   -6.3278    8.8805  -17.2565  -12.1658  -13.0830   48.8112  -18.3662  -69.2504  -70.7446   25.4070
    6.7607  -47.2201   11.6345  177.2701
  -13.9385   35.4407  -25.2012   -2.7221   18.6158    1.7950   -6.1392   -0.9157   -8.6639  -21.2966
    7.1391    7.8792    3.6504   -5.0131   -5.5064    2.2725   32.8269   14.5675   13.0847   14.0644
  -29.7060  -23.4044   11.6979   -2.3065   13.9112    5.2182  -16.9882  -42.5893 -233.7673  155.8981
  -20.7419   10.5204  -20.6600   93.9431  297.5992
   -4.6422  -10.8682    7.6262    3.2957  -30.4982   -7.8832  -24.8919    8.3989    4.3414    8.9188
   17.0179  -17.0380  -19.7559  -26.0863  -18.1192  -17.7306  -15.0096   -9.4496   11.9003   12.0662
    3.8450   -6.5413   -3.7417   33.5990   32.0611  -33.1747   17.7559   31.4463  153.3825 -188.7977
   19.5754    1.8299   19.9753  -85.7728 -227.4271  360.6858
  -15.7664   10.2421    8.0991    1.3725    8.5396  -12.4220    4.2536   -4.4433    0.0321   -6.4140
   10.0672  -22.8274  -15.5567   -5.7929   -3.7266    3.8711   41.4415  -22.3790   17.5554   -5.8865
    4.6546    8.0640   -3.5675   55.8044   -1.7595   -7.2567    7.3065  -88.4770  -59.5574  -84.0092
  -18.6337  -17.2161  -32.6339    2.8836    6.4527    4.0148  196.8906
   -3.3589   23.5230   15.4905  -10.3415   25.4149  -36.9027    4.5943  -15.4301    0.2642    1.1949
  -21.9393   12.4802   36.8888    3.4544   14.6150   21.0258   -9.0911   77.9354   -2.1828   -0.6009
   17.6529   25.0107  -39.2028  -63.6284    2.2609   97.4645  -11.4006  -63.1321 -161.1339 -167.0749
  -11.8808  -16.1778    7.4702   22.4389   15.0179   21.4906   90.2879  186.1434
  -62.6304   51.3673    6.5276  -12.3435   37.1837  -54.1218  -15.7168  -24.8251   -5.6738   -2.0396
   25.3884   -3.3686   26.9953  -22.9391   12.4984   15.4313    4.6026  115.5884    5.2165   -2.8063
    0.7207   25.6767  -76.2831  -60.2632    3.4899  130.4716  -11.9921  -59.6045 -159.2682 -347.6795
  -39.6552  -23.7551   15.4781   -0.4074  -20.1460   -5.3645  179.2992  196.7575  568.6084
  -92.9028   24.7669  -85.4531 -140.3937  -47.9565   -5.9596    3.6280    6.2189    0.1072   65.3604
   30.5025  -10.0180  -20.8467  -14.1255    9.5943  -75.5637   14.8752  -49.9967   45.4734    0.6606
  -21.7918   11.3862  -23.7974   48.4476    2.7883   -1.3774   25.1742   -3.6037   35.8304   18.3197
   20.2248   21.9568   -5.7032   12.2445  -17.2900   14.0231  -12.7334  -25.5525  -49.2161  553.3154
   78.8844  -79.6355   22.5834 -177.7957 -127.0634  -52.3913  -31.7021    4.1748   42.8709   98.9037
   60.9853   -4.0060   -3.3082  -18.2792    6.3365  -24.9341   44.2786  -77.5972  -15.7817  -29.3896
  -32.6206   10.9737  -28.6588   42.0149    8.9170    8.2799   22.1850  146.1754  -48.4025   25.2593
  -32.6373   17.9245   -4.2010   16.0575   14.6183   -9.4199   -2.3199  -25.2687  -13.1658   -2.0507
  516.2705
  -42.2938   45.6832 -193.5457  -19.2312  -27.0869 -111.8970   -8.0203   33.1877   37.1862   12.3146
  -29.0991   -3.9020    5.8660  -16.3964   16.0774   -9.4376   -6.1950   79.4201   31.3193  -17.8301
    7.6939   20.2621  -27.3528  -54.8529   -7.6517   33.8689  -26.4231   33.5712  -17.7077  -21.1214
   -5.4439   16.1997  -15.0661   15.5122   11.0402  -13.8489    7.5115   15.6683    6.0868   49.8622
   28.3038  506.6328
  -22.7633   19.1084   -7.9270   19.7992   10.9571   -4.5880    8.0744    7.0623   -3.8990    9.7898
    9.6583   -5.4958   11.5527   15.4120   -5.9115    0.6047    4.5425    6.2445    7.1437    0.0339
    3.7954   -4.7182   -6.4103   -0.6614   -6.7201   -1.5937   -3.1989  -23.1602   -1.8819   -7.8047
   19.1329  -13.5783   -7.5549    7.9721    4.0474   -2.0907   11.7733    3.8166   18.4847  -66.2413
  -72.1886   31.4853  112.0939
  -52.9016   54.5186   39.2336   97.4195  114.9034   52.0964   74.9289  -46.5478  -96.0125  -37.3819
   -8.5494   17.0802   17.9262   48.1191  -17.4485   59.1716   -8.4465   44.3469  -16.0944   11.4041
   66.8056  -30.5227   50.0491  -46.4552    3.2968  -69.7562   -4.7359  -75.5688   31.5020  -35.0484
  -47.5767  -23.1039   30.5079  -61.3287  -20.5926   21.2714   -3.1242   31.8547   34.2635 -151.4537
 -439.3104   13.8843   69.7448  791.3585
    0.9130  -15.6925   -8.4785  -20.8843   -8.2752    0.6286  -20.4612    0.3089    2.7554    0.0892
    0.5021   -6.1848    9.1939  -21.5280    7.2628  -21.0941   10.2326   11.6645   13.5459    5.9356
  -10.2899    0.4970  -14.9514   -0.7372   13.2874   16.5545   -7.1410   44.3461   -5.2268    5.4720
  -10.7068   10.2359  -16.4230   19.1473   -3.5751    7.0405  -14.8702  -16.9687  -16.3582   49.3740
  125.1160 -117.4359  -55.1579 -252.8871  274.8710
   -2.8456  -11.7343   -1.3800  -11.7348   10.8427  -11.4084   13.0260   -6.5611  -13.5580   -2.2571
   -3.7441   11.1368    9.9150   14.6825   13.2182   31.8653    9.1980   35.2247   -1.7714   10.2182
   39.4828    4.9788    6.6012  -42.7072  -11.1877    9.0496    1.3821   21.4683  -22.3489    3.8372
  -31.7538   19.4040   -1.6759    7.8599   15.9333  -34.1767   -0.6231   -3.1972  -14.5944 -207.2573
   80.7760   88.7828   -6.5729   80.6694  -28.3807  268.0932
    5.9646   19.6095  -16.6263   -6.1813    5.1302   12.2992   -5.3168   -5.0500    2.7922   -0.6952
    5.5807    0.2724    3.0002   -4.9327    0.7602    4.0212  -25.2773   13.2519   -4.4799  -15.1224
    6.1609   12.2801   -8.8799  -17.0348    3.5196   20.8131   -8.8998  -28.1487   31.8290   -6.3622
  -19.3015   12.6199   -6.4316  -11.9180   -9.2111    9.3073  -22.5466   -3.1559  -19.2760   99.3232
 -124.7130  -47.2835   20.0738  -45.5902  -18.2027 -128.0580  249.2072
   16.7702   -0.7806   -9.5353   -1.5711  -14.6869   -7.2703   -2.0119   -0.2588    4.4563   13.3221
    7.8555  -20.8193    3.7762  -21.3216    3.7195  -19.7376    1.3436    1.7368   11.1717  -20.3644
   -1.4420    0.0289  -39.1174   40.2109   20.5639   22.5738  -14.1878   -7.8921   14.8697  -12.7916
   25.1890   19.8149  -15.5307   20.4546   -9.2037   17.0621    8.3982   -1.2801   -0.2415  112.3680
   -9.9411 -126.4928  -22.0700  -73.3151   53.8331 -137.0216   92.9267  253.9515
   24.6660    4.4581   54.6259    0.9547    8.3671   40.3636   13.7649   11.0840    0.8976   32.3228
   23.7161   21.3171    5.8042   21.3813   -1.3897   -4.7159  -15.5259  -61.1249    3.1845   21.8973
    5.5508    3.1579   20.9746   26.5067   -5.3812  -28.8743   21.9035  -15.6084    9.0055    9.3445
   16.3681  -20.6143    9.6603   -9.4358  -15.9731    9.1700    0.3023   -8.4904   -0.1294 -146.4363
  -24.6718 -164.9397   24.8031   61.1189  -12.1922   15.9805   -2.8132   28.5742  199.2502
   22.5466   -3.5755    8.4110   -0.5675  -21.1000   -4.0649   17.3371   -1.2927   20.5526   23.5997
   -2.9441  -14.0472  -10.4515   -4.6884   14.5356   -8.9487    5.7687    9.6272    6.8210  -31.9285
   17.1628   31.8096  -27.3829  -31.8692    0.0364   -1.9931   -6.3829  -15.2497   17.2816   19.7021
  -25.2088   26.1105    0.1831   -9.7250   -7.0941   -7.4164  -10.4680    0.1068  -46.1551   20.4984
  -76.7716    5.1706    1.4949    5.2335   41.0523    3.9662   37.8009  -22.5352  -27.7548  195.1822
  -22.2126   16.9146  103.1377   88.9681   86.6520   63.3113   53.1842  -32.1665  -62.4333  -38.4937
   -8.6664   16.5288   42.1774   31.4276    9.1276   57.7457   -5.2169    1.4656   -6.3563   33.5267
   39.8542  -55.8539   45.8918  -14.3185   18.2409  -62.3461  -21.5016  -18.4846   -2.2619   -6.9603
  -23.8558  -34.6991   20.5891   -9.7941    3.7736    0.7093    4.4495   21.1486   45.0960 -228.5015
 -177.5054 -354.9239   32.8758  326.5652  -82.7001   20.8257  -29.2984  -43.5950  215.9650  -28.4159
  744.4385
 -142.6000   51.6637   52.3836  -21.8249   12.0441  -48.0599  -13.2221   23.6240   27.4375   -3.7406
   18.8376  -13.2544   25.9956    7.1706   21.9034   -0.1307   -1.3868  -81.8737    4.5524    2.7274
   30.9798    7.8413    1.9073   55.0646    5.7862   36.7039   42.8818  -30.0422   -9.1880  -50.9299
   34.5644   -0.5010   -1.6479   -1.0174   23.7092   13.3306   33.4910   27.4505   67.7860  -15.3952
  -28.2141   40.3040   39.1216   40.5689  -28.9757   28.5546   -9.8087  -34.0596    3.1769  -11.7001
   17.5947 1568.4887
   59.5403  -53.6573   19.9325   -2.3128  -41.6070   -4.5169  -32.5045    3.5392   16.5333   22.1420
   21.2312   21.6892   -2.1145   -5.4881   -7.8226  -29.6229  -61.6304   22.3523   26.4297   33.6698
  -17.5714  -26.5944    5.7493   -3.4990    7.6428   11.8768  -13.0537   23.6698  -14.5942   53.4759
  -23.7454    3.2562   -1.5647   -0.4063   32.7289  -28.4112  -29.6171  -18.3726  -56.3895   11.1852
   15.5796  -33.9588  -16.5730    3.7715    5.6277  -24.3019   13.4596   35.7149    6.3662    1.2909
   -4.1784  -20.0487 1596.0444
  184.1576    7.8718 -243.4287  -37.1666  -48.2854  -11.9160  -68.8876    4.2703   44.7860   42.7651
   -7.9301   28.1494  -17.5475  -25.8504    5.0510  -29.5606 -131.0922  -14.7567   63.5830  109.1866
  -20.7591  -27.9324   16.1743   23.2966  -16.0391  -28.2269   18.8531    0.7493   -0.8865   44.6369
   25.0071    0.6164   14.3998  -10.9532  -17.7172   -1.8205  -12.8361    5.8870  -53.6032   45.3673
   28.2295   15.2798  -37.5997  -99.6851   37.1948  -37.0976   34.5452   38.6644  -24.0925   32.3812
 -105.2700 -443.9582  212.6380  843.9207
   16.6688   18.4721   53.2084  -44.5358   19.3569   32.2462    8.1450  -13.9421  -37.9930   48.9838
   35.3009   -6.4910    3.9548  -17.6554    6.6768   -1.4823    9.4260  -88.6802    9.2734    2.7424
  -15.0996  -28.9977   -1.9590   95.4842    6.9179  -33.5782   43.5413   -3.4245    4.2176  -33.3600
   -5.6822   15.8024   -2.2725    2.6523   19.9053   -3.5190    8.5897  -12.7290   12.1763    5.7577
  -29.1594  -13.4245   22.9395   23.0363   -2.9617   -7.5225   19.1574    0.9927  -13.3033   -3.9167
  -18.3445 -221.0212 -254.8693   14.0764 1396.4061
   80.4593   11.8925   85.0659  -73.0469   19.3197  -50.3532  -53.2937   -1.2717  -13.8221   43.6945
   33.2708    7.8342   37.6277  -57.4848   74.9797  -17.8624  -66.8435  -67.9244   26.6948   62.2897
  -26.2094  -48.6965  -35.8167  102.8525  -11.9728   21.8771   44.9772   53.9265  -31.3329  -18.4525
  -38.2263   36.5248  -10.4221   12.0543   68.5818  -22.0120  -14.4180   -4.5904   -9.7182   39.6876
   34.7340  -41.3991   -8.8104  -72.8063   39.7560  -21.7059   35.9713   32.7500  -46.0413  -15.0196
  -71.2145 -200.2765 -620.4092   38.7952 1849.6075 3798.3232
   -3.4622   28.2164  -54.9398   -7.3511  -42.9086  -25.6529  -31.0740   16.1094   41.2185   17.0657
    7.7207    9.3477   -1.8300   -4.0792   11.6918   -1.9150  -39.0037  -23.7748    5.7518   23.7815
   -1.6040   -8.1737   26.6496   23.6601   -5.3957   -2.3966   -2.7692   -7.5995   -2.4843  -11.5460
   28.0316   -1.3133   -0.2786   -4.6344   -1.7560    2.5124    5.6695    4.4562    3.7840   21.9483
    0.1907  -25.8634    8.3582  -13.7611   -6.2789  -14.2099    9.4804   13.4399   10.3636   -1.8860
   29.0344    0.7464  128.1162  -75.6453    5.4750 -127.8662  420.0686
   87.2811    5.7035  -46.2349  -54.4951   47.4561   73.9059   53.1321  -53.0569  -42.1383   22.8443
   13.4121   54.4196  -10.1838   49.9581  -34.4661    5.0297    5.7644  -32.4216  -23.4236  -47.0268
   11.3566   16.7953   63.5964  -33.0799  -17.1485   15.9706    3.6051  -28.2593  -12.3834   29.6710
   31.5212  -62.0199   27.3985  -25.4478  -23.2149   22.0021  -31.0191   17.7436  -31.6745 -132.6885
   14.5436  -34.0160   31.3391  101.4479   -4.3433    5.8990  -35.7350  -92.3056  104.6326  -19.3668
  111.7252 -695.8387  -25.2140  105.7576 -173.5557 -223.3519   -5.9818 2350.5072
  -38.4554  -28.0016  162.6179   16.0140   38.0157  -34.8089   17.7557    0.0563   -1.2702   -9.6779
   14.6613  -11.5445   15.3102   21.1474   25.9369    3.5870   71.6289  -45.9188  -30.8957  -59.4817
   14.6821   22.8391  -11.8243   17.6410   -7.2152   11.0924   18.4072    1.3449   -4.3929   -8.8220
  -32.8709  -15.8544    5.9867    3.0335   21.9683  -13.7670    7.7749   -2.6168   29.3683  -57.0688
  -53.8600  -18.7069   49.1722  120.5765  -34.5806   23.8837  -23.7751  -45.3276   28.0192  -13.5815
   94.2169   86.2671 -191.4619 -176.1115  -65.5812   -7.3411  -66.9778  128.6639  461.9642
 -320.9843  187.3193 -687.0495  -28.9584    4.1620   10.8128   -6.9265    5.3023   -0.8754   16.1611
   11.6498   -3.1384   17.8097  -14.1254   62.7555   -6.5098  -38.7761    6.1016   31.3391   42.7873
   18.7493   12.5382    8.9408   28.0581  -21.0786  -14.1894   15.4742   13.5285  -25.7465   12.1526
   16.4320   -6.3170   21.1511   13.7675  -30.2142   24.3232   30.5372   16.4433   75.5184   72.9985
  -36.3913   57.2216   -1.4460   -3.7639   19.4963    7.7166  -11.6074   20.0290    1.0475  -28.5061
   23.4031   38.5487  -40.5998   13.9566   -6.7887   -1.3060   43.4844 -869.1779 -184.9178 1602.6795
   14.8398  -16.4108   45.9461   -4.3288  -45.5702  -59.3623    1.1470   19.2428   37.1198  -36.8147
   -1.7623  -10.8671    3.2112   -8.3774    0.9687    7.7011   33.5453   27.9850  -19.7262  -10.8615
   22.6525   -3.4174    6.3448  -35.3944   -9.8873   -8.1269  -24.1953  -15.3777   -6.0442   22.2621
   36.6483    2.1748   -4.2159   33.1297   15.5310  -31.6906   14.0999   -8.0445  -14.2995    7.0758
   39.6214   21.8260    1.3268  -70.6653  -19.7204   13.3989  -20.1539  -23.3038  -29.5217   -2.7314
  -38.5658 -274.0590  276.8795   10.4906   45.1714   26.4780   30.4038 -159.0887   52.5329   58.4229
 1506.6232
  -30.1203   38.4702  -32.4267  -47.3832   33.5533   26.5699  -25.8020   -0.7590   -3.2267   89.2799
   19.8990   28.4237   15.2059   12.1602   28.4405  -15.3877  -36.2041 -119.3882   20.8082   32.5647
  -39.1290   19.4150   25.0433  100.0666   10.4956   16.5700   91.4545  -71.6940  -23.4179  -16.2029
   40.9767  -26.4918   -4.0694  -14.1335   14.6111    5.3423   17.4782   35.2227   68.7804  -36.1821
  -27.7893   15.5164   -0.2224   50.6699    7.2316    3.6416    8.7037  -10.4997   40.8654  -35.5215
   14.3529  268.5687 -597.2297 -129.2954  -37.6437 -151.0347  -88.9229  157.7153   22.0225  -11.5757
-1766.1950 3089.5967
    9.0449   12.5385  -81.4813  -55.4462   -2.1476  -12.0081   -7.6896   -6.2146    1.8893   53.1407
   11.1405   10.5500    0.4595   18.5743    8.1036  -30.9367   69.0334  -81.0579   -3.1776  -18.1693
   -9.0034   26.6472  -28.3759   30.7738    8.3780  -29.5395   69.9425  -11.7754    9.7023  -30.2564
    4.1220   -1.5302   19.3760  -15.0907  -35.7313   46.7836    1.2180   17.1166   21.0839   -7.6373
   43.9028   23.9407   -3.1291  -10.8509   -3.3226    0.2316    6.8382   -9.9436   23.2350   -0.0894
  -24.3289   77.3433 -219.4602 -271.7046 -154.5193 -109.8577 -112.6988   55.1741   54.6066   51.6073
 -704.1102 1159.8268  991.8238
  -37.2184   -1.0534   -8.7390  -52.1456    6.3133   42.1018  -14.2065  -15.5020   -8.0844   83.6691
    6.4405   16.6892   -9.0145   13.7763   -9.4832  -32.9319  -26.6792  -95.8593   28.1743    1.2482
  -49.7612   29.9140   58.6372   94.4795   31.7368    0.8415   70.8730  -94.4119    2.5722  -28.8658
   72.3554  -15.8337    5.9510  -17.7100    8.7386    8.8220   18.3728   34.7906   40.1119  -17.3693
    7.7412   56.8041  -20.4173   19.4380  -15.5521   35.6471   -4.1270  -24.0653    1.1255    2.8594
  -83.3684    5.8905   67.0247   85.5254  -16.0056   -7.8627  -18.0037  104.8477  -19.9528  -16.0107
-1090.9769 1511.0630  598.4716 1193.3730
   52.3816  -18.9177   13.0598   78.3480  -40.6955  -95.8291   -9.7208   51.4943   68.1271 -123.8945
  -21.1332    8.9512   17.3847  -35.7857   23.7549   44.5189  -64.1145  156.8643  -19.7849   33.5024
   43.1312  -41.6781  -14.9932 -107.6547  -34.0961   63.6372 -107.6499   43.3976  -54.1159   62.3519
  -27.0367   20.6475  -11.6830   37.5422   64.8737  -63.7711  -14.8166   -4.1785  -46.8788    9.8816
   -0.2569  -34.9521   14.4736  -67.6644  -12.0964  -10.0113    2.5013   -7.1491  -39.4299    8.8747
   28.4433   78.8703  -14.2818  -62.7605   56.3014  100.5718   49.9312 -181.3858  -14.1055  -26.1902
 1485.8721-2371.2237 -957.5640-1599.0309 2524.0032
  -86.9108    5.3256    3.7201   10.6950  -25.0357  -10.4136   -4.6647    0.5280   13.0947  -38.0871
  -12.6874  -12.5637  -24.8449   14.4194  -11.1800   58.2694   -0.3934  -88.7185  -37.2648  -42.4852
   17.1050    1.0472   71.1232   73.6192    1.0145   -1.4893   -0.5752    8.6079    9.7649  -42.2507
   17.5188    6.1998    8.8253    0.5138   -2.6235    4.8822   24.5639   18.9591   32.6250   27.2526
   12.1624   -3.5617   -0.3834  -37.1198   -5.9499  -10.7156    4.8774    3.2319  -19.1876   10.7126
  -20.0768   99.0118  -67.2084   49.1242  116.5261   20.0181  105.7890  -10.5382  -25.4066    5.4416
  591.8324 -935.2061 -631.2110 -617.0452  976.4339  681.0166
 -612.3895  107.2850 -276.2623   11.3270   -5.2132    8.2834   33.0786   48.0271  -28.2935   35.0864
   15.2118  -56.2734   13.6620  -36.7145   40.6527   17.8051   35.6924  -31.6345    0.6905  -30.1577
   -6.5600   20.5322   47.6374  114.5152   39.5638  -60.0454    4.6690   27.6568   -8.3396  -48.3702
    7.6845   38.2506  -17.0208   45.1330   36.3313  -13.3040   56.5373   -9.0317  101.0620   43.5928
  -45.5666  116.0854    9.3894  -30.4120   11.1903   39.3080  -20.7617   41.5903  -86.2636  -19.0042
  -71.8953  -34.4551  -67.7439  -26.3830   82.7978   54.6523   13.9673-1454.5044  -89.4926 1115.5606
  110.3618 -111.1995  -20.9925  -70.9587  112.4138   90.2465 2271.3148
   20.6508  -36.8633   46.0331    3.1009  -26.3428  -10.6281    6.7236   -2.4034    7.3780   26.1312
   21.6555   -8.0087   -5.0142   -8.8029    6.1333   -1.6861   -4.4797  -24.3991    5.4551  -13.1294
  -10.2519   -7.6786    1.1759   35.6554    7.6798  -16.6189   -2.0226   17.0018   11.2848   11.4818
  -10.9009    2.6513    2.3767  -15.0483   -3.1626    8.5381  -10.4974  -12.8134  -18.6775    2.1362
  -77.9674  -24.6815   -3.9496   65.7128   -2.5913  -19.3257    8.8603   27.1349    9.7325   14.8473
   35.6974  -47.7348   67.4624   48.7057   44.7849   28.5171   32.3175  -65.0878 -116.0878   48.6896
  -18.4606   11.2157  -57.7486    6.6932  -40.8324   25.4689   56.9033  231.3085
   46.3898  -18.0009   39.9782    6.8363  -19.9906  -12.2040  -10.3133   15.3419   39.0422    2.2715
    7.3065   10.1532  -12.7744  -15.6837  -11.1717    2.6276  -23.9205    5.2364    9.3227    2.3551
   -4.3048    2.9756   15.0832   19.2920   17.5326   17.6453  -25.9281   12.4694   22.4614   -9.7658
   13.5205   11.5538   -2.2462  -13.2744  -14.5573   30.1123  -14.7224    1.4960  -21.6790   14.3046
   22.6952 -134.9083   -2.8459  -48.9400   35.4011  -47.7060   37.5009   60.7703   26.8132   25.4522
   50.4400   39.4907   41.4783    3.6713  -17.9056  -33.4245   32.5896  803.5059   51.2636 -807.7641
  -50.6350   28.0404  -16.5536   25.5702  -27.8643   10.0801 -888.6865  -68.2696  937.1382
   -6.9192  -17.6460   -4.2918  -38.0852  -19.7736  -19.7576   24.6197    7.7852   13.3646   13.3104
    2.2876    1.3975  -13.1897   16.2629  -18.0339  -22.7229   41.0686  -26.9863   30.7359    5.8338
    9.2078   20.5663   11.5577  -10.8187    2.7156  -81.4821   10.4660  -26.1655    7.5522   26.4218
   15.9201   -7.1445    0.5292   -5.5661  -25.3893    7.5203   17.2279  -11.4463  -22.8187  -27.1410
   -7.7935   60.1520   19.6926   58.1012  -45.2648   16.8560  -18.0726  -31.9941   29.0870   16.7444
   10.0661  -17.0393 -110.8765  -19.9733 -970.2832-1493.3285  -39.6708   98.9851   25.9215   18.6168
  -43.4859   71.4498  175.2770   24.9323 -115.2998 -117.0014  -32.6208  -24.2440   -6.5310 1022.0534
  -42.4645  -45.6515   17.9635   82.7884  -64.3746  -33.0923    0.1082   39.9776   97.6535  -38.7708
  -51.6537    5.5791  -50.0344   63.4679  -49.1638   -8.5241  -38.4032   66.9918    5.0864    2.8260
   -6.6644   69.2639   57.0873  -79.5066  -30.5660   55.8827  -48.9242  -97.2398  -10.9904   62.0539
  102.3313  -39.1131  -14.6263  -12.9633  -27.7249  -16.3306   33.9725   34.7688   -1.9042  -27.2383
  -47.2002   41.8030    2.2153   45.4316  -50.9995  -14.8830  -40.2883  -24.8879   42.4525   44.6092
   30.6521 -124.0149 -108.7937   49.2249-1546.0842-2950.3198   86.0607  185.7655  -25.8821  -25.7188
  -79.8998  123.3479   71.6417   78.3307 -135.6374  -46.3530 -112.4673   -6.2026   32.5361 1575.8273
 3153.7253
   -7.4978   -8.4360   -0.8644  -19.8845   -0.9470  -57.5170  -35.9205    8.6671   27.5228   -1.0855
    8.6842   18.3450    6.6833  -22.1916   31.8258  -14.5933   23.4700  -90.4876   -5.8344   -3.6895
   10.1786   -6.3964    5.4176   82.2150   29.0423  -40.3554   57.3505    9.5380    9.4773    0.0413
  -11.4334   11.5483   -3.9396    5.8706   16.6204    9.4448  -11.9506  -16.5852  -10.1320   -1.8156
   16.6531   -4.0982  -11.6405   -4.2757   16.5308    3.5763    4.4485   12.4891    2.6552   -3.0248
   -8.9918   22.5342  -18.2530    1.1240   14.6138  172.4157 -202.4945  -16.2106   51.7548   28.4582
  -35.5155   83.7858  139.0279   47.9700  -75.4163  -83.9177   30.6408  -20.0149   -9.6841   -1.2416
 -183.8930  219.4827
  -59.8069   48.1929 -203.1131  -14.2351    5.9673    0.2556    3.9039  -12.0846   -6.5467   26.2142
   11.2984    2.5537   17.1771   -2.8350   23.3476  -58.0472  -54.2033   56.8641   72.6178   59.3245
   -6.8543   22.2549  -19.7304  -39.2866   -7.0821   51.5460   -1.2122  -56.6185    4.2149   12.1535
   71.3202   -8.2308   -4.9522    6.6628   -8.6174    5.6576    3.4953   20.1910    9.5554   -0.3706
    6.1167  -39.9458   -2.5698   -6.8982   20.7179   20.9051    2.6178   26.9411   25.3443   11.3435
   44.7340  -11.3105   20.3281   24.4396  -35.6307  -26.4634   16.3342   26.1402  -31.2632   55.5863
  -21.0454   15.2594   10.8475   33.2370  -19.5609  -19.6879  -13.4436    0.2416   31.7224    0.2394
   42.3742  -13.7302  234.8558
  225.5124 -146.3875  181.3727  -29.2428  -87.5291   15.0809  -33.9727   -6.3331    2.4208   58.0582
   12.2912   20.6797   -5.1407    6.8683  -39.5901   -2.8342 -173.1664   19.4823   44.2561   89.9127
   -6.2181  -32.5746   -6.6069  -16.4559  -14.8414   45.3241  -33.8196   19.9565  -20.1309  -16.4743
  -23.6494   12.1593   15.0923  -12.3775  -13.0814  -11.0496  -15.8590   28.6974  -38.7368   19.9644
   -4.0312  -24.8714  -21.9243  -48.8428   -1.2125  -17.0663   39.2742   23.8162  -17.5340   51.9127
  -59.7255 -139.9488  121.8687  199.8579   17.2883   37.4675   49.7192  -64.3463 -129.4633  -20.0349
  -18.1037  -22.9599  -55.9051   23.9991   34.1493  -16.7370  -91.0479   41.2577   -5.8849  -25.9011
    5.6998  -57.8180  -52.7261  633.0556
 -307.8619  241.4500 -790.0328    6.6546   28.3529  -25.5261    0.2715   22.0490   13.8585   -4.7922
    4.8489  -10.6643   16.8155    0.7189   39.6518   25.4199   59.3489  -14.4090  -18.9007  -24.7921
   29.8821   11.4804   -3.8266   24.2478   -9.0993   -7.1109   27.7092    9.8902  -51.2444  -98.4033
  -14.3602    8.1040   23.9952    4.8516  -16.9012   27.2552   44.1658   20.4958  125.2373   -7.9869
  -36.2030   37.5112   35.8601   45.4814   -3.9164   15.2049  -12.0525   -9.0541    7.9659  -41.0178
   62.6522  152.9423  -70.4915 -123.6476    6.4606  -19.7762   17.2923  -63.8495   61.4716  191.7705
   -5.3950   39.6315   86.2918  -32.5188    2.5791   12.4007  168.2501  -30.2020  -64.2021    1.2982
  -64.9947   29.2375  147.4797 -218.0913 1088.3899
  -78.7026   12.4183   -7.9343  -55.8964    9.7884  -15.9091   22.2652  -10.4293   -8.6839  -22.2819
    9.5756    7.7963   17.0312  -14.8675   13.9674  -38.5143   44.1939  118.2549    9.2289  -28.2526
   -7.8453    6.0451  -22.3507  -54.8674    5.5361   42.1312  -25.0727  -39.2621  -19.9319   -5.4277
   -4.2180  -14.0481    1.4913   28.4250   29.4101  -14.2810   -1.0108   13.3764   32.7823  -44.8439
  -28.7546  -72.8463    0.2594   25.4787  -16.8710   11.3508    8.7668  -19.2557   15.5770   -4.8601
   53.8377   26.2608   13.6874  -70.7588   -1.6657   32.7943  -17.0060   20.8969   29.1188    1.2024
    0.9369   17.7315   58.4343   12.4115    8.9430  -34.5466   25.1737  -30.2319  -31.9301  -13.9494
  -45.7211   22.0057  -85.5988  -40.5207   43.4806  890.3087
  -65.7804   56.4865  -69.3493   14.4055    2.5714   76.3185   20.6433   -5.9420   -4.9931  -32.6421
  -31.1480  -13.4954  -17.6053    8.4784  -39.0785   -4.0563  -10.3887  -18.3140   15.6206   -6.5700
  -13.3763   16.2708   29.1790   29.7225   18.5362   -1.9779    3.7827   14.1421   10.7450  -58.5451
    7.0666   -5.2734  -15.1825   -4.2285  -37.0490   57.6163    9.2675   29.0236   64.3336   12.0040
  -44.0881   51.3143    3.7150   17.9200   -6.7546  -22.5554    7.7193   -5.5451  -22.2607   -4.5159
    6.3467   75.7713 -100.0442  -45.5683    1.0783  -15.7597  -25.8356  -32.0643   39.6985   49.1498
   11.7030   -9.8523   11.8382  -25.0347   24.0845   31.1671   68.6853  -48.8837   -9.3997    8.2590
   12.8882   23.8649  -13.2826 -336.3141   17.7462   52.2000 1029.5890
  -12.6181   -6.6987  -76.3482   -4.2454   21.2650  -33.3033   -3.7051    2.1437  -16.6789   18.3754
    1.6692    5.7623    8.2432    5.7231    6.8539  -22.9297    3.1243  -20.4253   -0.1458  -17.1629
    2.4422    1.9998   -4.4191   24.4589   -1.9127   36.1253   18.1278   -8.7761    3.3388  -12.8301
  -11.0496    2.7676   22.3873  -15.3308   -8.0178    9.2146   24.0272   13.1932   34.1993   -6.3607
   36.2329  -36.0841  -11.9508  -38.5383   15.2798  -27.8259   -2.1760   20.7566   15.4257  -11.8889
  -14.8728  -16.8634   19.3690   34.0745   24.2242   58.2037  -27.3315   19.4674   -5.0765   34.8395
  -18.0606   19.2247   14.6288   48.3650  -66.5207   -8.6716    4.2082   -6.8825  -12.3758  -30.6250
  -46.5215   10.8972   15.6175  -51.9342  -80.3206   31.5045 -177.9485  886.8820
  -83.3054   15.0895  -39.7496  -55.9151   43.2763   25.2279    3.8980  -10.1694  -26.7624    7.4285
   20.8825   20.8013   27.3056   -7.3373  -10.1626  -35.3859   -7.0875  161.9027  -21.1394  -13.9543
   31.6761   -5.1833   -9.1169  -61.4102    5.4545   15.4822  -24.6542  -55.4669  -33.6092   -0.5725
    9.1346   -5.4600    5.4832  -24.5762   30.8095  -15.0036   -0.4330   -1.1481   23.2979  -69.2265
   -7.8713 -166.2884   -2.6436   16.1007   19.2978   -0.5588    1.0801  -16.3822   46.7717  -16.0200
   45.4157   -1.9581    6.7779    4.9309   43.9125   30.6871   -0.1768   40.4802   19.6481    9.0900
   40.7590  -18.5472  -25.7160   13.5041    9.0750   18.5169   40.2238    3.6906  -29.0698  -10.2725
  -16.0857   14.4183  -77.0986  -16.7653   21.5427 -201.9001  -82.9143    7.6785  885.1958
    5.4034  -43.4746   44.7065   20.8940  -67.2508  113.2045    2.0357   10.7027   -9.8015    2.1444
   17.1932   18.3576    6.6270   36.0648  -24.6739  -35.0871  -75.0447   61.3651   25.8640   12.7611
   17.6674    7.7790  -19.5321   -7.3419   -4.5674   56.2204   -5.5564  -17.4519   -2.2005 -181.9533
   -8.9615    1.1125    5.0342  -10.1858  -37.5222   16.5831    3.2600   33.0174   49.3892  -19.1146
  -66.8788   22.3182   17.5737   54.9858  -28.2457   -3.0002  -12.1625    1.1811   15.1201  -33.5282
    3.6338  -14.7636   41.7031  -19.1638   24.9077   86.6723  -14.8717   40.5476   17.5263  -30.2053
   -1.0441   19.6697   -2.9327   24.7051   -1.5257  -58.3924   22.6774    6.2450   -1.3080  -31.6406
  -71.9739   60.9594    6.6515  -91.5041  -87.7091  -55.3063 -337.3153  181.6332   27.1857 1062.2647
   33.4036   -4.3264  -11.2111  -29.3493  -27.2747  -40.5411  -17.3024    8.9263   35.4440   11.9648
   16.9368    4.9187    0.3871    4.5838    2.0859   -8.4070   -0.2615  -81.1125  -17.6351   28.2208
  -16.5228   -8.2995   12.4205   51.6328   -2.4684  -37.4691   29.1246  -17.1021    2.1590  -24.4808
   28.2212   -7.3819   -9.1303   21.1162   -3.3357   14.9545   -1.2520   -0.3462    7.4286   16.2820
   18.2363  -57.1622   -2.5531  -19.4634    1.6387  -13.9048    2.8163    6.7250   18.7044   -0.5621
   13.7921   -7.4318  -57.2682   13.5597    3.6072   62.8705  -11.0407    6.5812   -4.3302   19.6592
  -12.6289   27.9686    5.7444   -2.5502    5.2796  -12.8116    2.4355    3.4495  -17.1829    2.8612
  -12.7160   10.1595   -5.6498  -14.3572  -91.1591  -21.6073  129.8341 -410.7989   59.9318 -103.2176
 1018.1817
   10.9144    7.8829    9.7624    3.4641    6.3752   -7.7433  -12.1218  -13.9796  -10.0008   -2.8592
    7.9990    2.5342   10.8335   -8.5251   -4.8342   -4.9190    4.7010   20.7009   20.1448   -3.4036
   -5.4025   20.5764  -12.1302  -37.0885    6.5083   26.0846  -10.7551   -3.3385   -3.2829  -20.1531
  -15.4746   -2.1011   -2.5784  -22.8848    1.0213   -3.7858   -2.0217    9.2558   -4.4834  -26.8086
  -14.3063  -21.6150    4.3717   34.5475   21.6463    2.5790    1.9141  -12.7913    9.5668  -29.3444
   43.6716  -11.0359   12.8303    6.9674  -11.6050  -37.6433    4.0370   33.2628   17.0308   14.2416
   -3.2552   13.2542   10.5454    0.2439  -18.3319  -16.4118  -18.8192   -6.1992    3.3164   13.4000
   16.1052  -13.0172   19.2465    0.4349   10.6144   10.2937    7.7441   -4.6245  -88.3664    6.3080
    4.1230  192.1746
    3.9773   26.0519   -6.8630  -16.5390   13.3405   10.4483   -0.3578    0.4522  -18.0632    4.6524
    3.3431   -2.2195   -9.9485    5.6078  -23.1013    5.3934  -21.8739  -18.2961   11.9741   36.1830
   -0.2762   -5.8719   32.7374   18.6209    4.7259   -6.5580    7.0690    8.1000   16.8234   33.4418
    3.3786   -2.6448    0.9095   -2.5612  -12.6963   31.5840   -6.5996    3.3030   13.5694   11.3429
    2.9521  -20.9676   -5.0972   14.2547   17.4140   -4.1246   14.8287   14.3430    1.0242    5.5900
   -8.7506   -6.8034    2.9927   29.1113   -8.7116  -24.0034   -8.2320   -7.1953  -29.7861   24.4091
  -12.6734   -2.6542    4.5780   11.3639  -24.0660   21.0056  -15.1306    5.0189   34.0431    4.0283
   13.6796   -6.1805   15.5362   36.2755   -4.3537    0.5357   47.3614   -2.4577   -1.0016 -275.5570
 -153.7417  -34.9036  382.3856
   -0.0273   29.8187  -13.4051    6.7821    8.7804   16.3874   -4.2727  -11.0259   -1.3945  -26.5217
  -13.2972   -3.2898  -21.1512  -11.9165   -2.2944   32.3270   12.8259  -16.5229   16.2956   -1.0710
    6.2879    2.0815   35.2267   -1.0156   12.4996  -45.8364   -9.8578    4.5279   24.5865   36.7399
   37.0887  -15.9332    7.8007  -11.8032  -24.9026   21.3455   -9.3437   -1.5073  -17.2594  -19.1739
  -17.2911    7.2276   -1.7306   21.9593   11.2440   -4.4435   14.8861   -0.6827    1.7419    0.6105
   41.6534    5.0775   27.5065   25.8742  -37.5358 -129.1709   33.9811  -14.6722  -13.6294   57.1732
  -17.1661   15.9865   31.8479    3.7699  -27.3143   30.1171    6.3252    9.8611   12.2870   42.9472
   51.6932   -5.5756   -1.6697   26.0096   22.7621    1.3307   48.5129 -122.2990  -50.1225 -171.8030
 -322.8726    6.5564  246.9661  525.0589
   39.9398  -14.7456    8.8917   14.2689  -18.9569   24.3112    7.3168   -9.8621   -4.3119  -18.7723
   12.0754    8.4016   -6.9936   -7.8062    5.6774   15.3106  -15.4967  -20.9796   20.8876   -0.6874
   -4.1247    7.1336   -7.7530  -20.4699   13.0161   14.9467  -13.0690   -7.5262   43.6655  -23.1790
   19.1687  -18.6525    8.4113  -14.9955  -23.5032   27.7941   -4.3181   -4.5618   -9.7064    3.0971
  -11.0920   28.5669    7.2527   15.5146    2.6857    0.9224    7.6647    7.3332   14.2975   -2.8930
   25.3916   19.4686  -13.6929  -18.0177  -11.6903   17.9395    0.9348   58.8717   -6.6429   -6.2971
  -26.7978    9.7349    6.5282  -11.6988    2.9774  -15.6156  -64.2522   -8.3609   53.7007  -11.3188
  -10.0356    0.8779   52.9820  -28.2047  -21.4143    8.0779  -22.7988    8.5896 -327.0544  186.4325
  -90.0355    2.6924   22.8090   22.6629  519.9604
  -63.2883   39.2622  -37.2562  -30.2482   21.4927  -33.2615   -0.2386   13.8862   -8.6286   19.7297
    5.2912   -5.5887    4.7443   18.5338  -23.7602  -14.4682    1.2569   33.7989   -7.7570    8.9183
   26.4920  -29.2385  -10.9310  -30.6072    5.9864    9.9393   -8.9115   -2.7097  -32.3741   20.6429
  -10.8934    7.2178   20.7151    5.9228   34.6597    8.8137   26.9393    5.8780   61.5001   -6.6435
   32.7552   17.7804   -1.5587  -41.4025  -19.4903   18.1246   -4.4545  -13.6053    1.8127   27.4945
  -28.0881   38.8023   -9.2057  -27.7555  -26.0421  -63.1282   -1.4634  -14.9952   34.3305   -1.0989
   21.6900   -4.1907   -0.1044   12.8502   -9.3154   25.8559   47.9569  -21.0841  -48.6983   14.8233
   48.6573  -27.5380  -21.2979   18.6179   44.4314   41.5374    3.6959   40.4293  174.4928 -302.1276
   48.2097  -13.6801  -21.0055  -69.2623 -242.1101  449.0803
   13.3858   -0.6268  -14.3716   -6.7979  -13.5277    9.0873    4.9366   -8.2908   11.7765    5.5087
   -2.8710    1.8875   -4.2672   -2.1779   10.0010   -1.9694  -19.4350  -46.9115    0.4390    3.3915
   -2.4407    3.6240   17.8835   34.0631    7.2661  -19.2282    9.8025   11.0937   13.9700    1.4668
   21.0808  -11.1803    1.9540    2.8416  -20.6701   20.5488   -1.3614    3.8547    4.3721   20.6581
    7.3053   21.8840   -9.6730   -1.2639   -0.9681   -4.2412   -1.8138   19.5362    4.2691    5.9667
    0.3069    2.3566    2.4827   19.2552    1.6631   -3.2066    8.1215  -14.3735   -9.0355   21.8145
    4.7149   -1.9254    6.0436   -1.1454   -8.8188   13.5716    5.2564    7.6003   13.6183   -7.4515
    5.5165    9.7823    6.0833   -0.2301    3.9631  -52.4894   56.1375  -34.9128  -58.4009   -7.8058
  -90.7422   13.9627   -4.8658   21.8805   93.3372  -46.4612  178.4198
  -15.3240   24.1800  -52.0623   32.2454   22.8061  -46.9287   -6.6538   -8.8450  -17.8914  -18.5083
   -2.7147   -8.6602   23.8524    5.9057   25.1729   24.2461   -8.6974   47.1713   39.7629    4.6896
  -23.0606  -19.9523  -49.0877  -95.1253  -13.0432   74.5429  -38.6219    7.3251   -4.2319   14.4464
  -29.4148   -2.7917   15.6950    0.8337   33.7818   -7.0869   14.7263    2.1065   22.0120   24.2773
   11.7441   53.8070    3.3458  -28.3183    0.2367    7.6646  -10.7290    3.7865   -0.8365   11.8392
   29.4741   43.0207   -3.1469  -42.4791  -58.7503  -48.4859   -6.4729   -3.9843   10.2135   41.9806
  -13.6506   -5.8788   -9.7620  -21.4924   26.9566    0.2686   -7.7772  -19.3537  -39.1079  -10.4333
   23.9912  -35.2644   61.8226    9.7242   72.5639    6.6324   11.4308   62.7693 -335.4507 -156.3217
  -42.0010   15.1338  -40.4864    2.5323  -16.1113   46.3235  -19.3540  614.7881
   13.3542   22.2329  -31.8171   -6.5534   25.4378  -13.0073    7.6411    0.5569  -33.3944   41.1388
   12.4981  -10.2223    5.7019    8.6445  -20.1701    2.0635   17.4219  -26.7299   10.1359    7.7650
  -16.0795   12.4033   -2.0247   10.3932    0.3761   39.3028   12.8012   10.3912   -2.6012   19.3871
  -36.4489   12.6968   -5.5749    6.8549    4.7059   -1.7811    4.9304    5.4549   31.9351   19.1403
   14.1909   -3.1213    2.3947   -2.1873   18.4638    1.3875   14.5356    3.3786   -5.6577  -11.9228
   11.0479   20.1798  -24.6798   -8.0424  -12.0087  -25.7818   -1.0587  -40.8466   -2.7027   16.7299
  -30.0951   25.6055   21.9214   -4.8959  -23.2614   -0.7135   15.9421  -11.1733    0.7052   -3.5331
   -7.7354  -33.8399   37.1352   41.1000   41.0882   -8.4302   -0.7830   52.3000 -154.1952 -287.2766
   13.4256   -7.9080  -26.3824  -14.3197   -9.6566   36.6816   -9.5060  252.7335  427.9736
   -1.0418  -12.1062   16.3945    8.0532    5.7836   15.4195  -12.5974   -3.1574    5.1058   -6.9924
   -3.5677    0.8139   -1.7275    8.0093   -3.6145    7.0431   -8.1459    7.0210    5.5642    7.8590
    2.9864   -2.1082  -12.7594   12.8702  -10.5573   23.1354   11.9956  -10.7584   -4.3709   -7.5141
    3.4300   -4.3829   16.7033   -2.0349   -5.5372   -2.6982    0.1388    6.9437   -0.7975  -16.9786
   -7.5224  -20.2556    4.6473   -3.1228    3.5766  -10.0946   -2.6488    0.9846   15.6421  -18.5447
   31.2958   -1.7828   20.1933    3.7977   12.7390   -9.9792   18.9961   43.0719   -5.2291    0.6492
  -31.7485   35.0487   18.1513   26.9800  -33.8447   -7.8227  -61.6360    3.4517   15.0789   -0.1709
    7.6145    1.5554    9.9622   -3.2196  -15.6222   40.5275   52.8871  -22.6730   -3.1638   22.2430
 -107.2924   -0.0493  -40.7283   38.8440    4.7548  -19.7287   -8.2200  -35.4713  -52.4652  179.2428
   19.1740    4.3744  -19.2706   37.2302   -0.8081    6.3146  -12.6863    3.2717   25.4757  -11.5199
   -0.3869    3.4491   21.3577  -14.6023   25.0516   -3.3278  -40.7542   -3.6363   15.5060   15.2722
  -14.3358    8.7644  -16.1138  -21.7064   -0.6777   21.5429  -12.4194   23.2549   -9.2603  -27.8840
  -31.1685   -4.4456  -13.2480    2.6786    0.1272   -3.7754   -1.5744   -6.4010   19.9493    5.9118
  -16.3070   27.2125    3.6057    1.0967   10.4854    4.9414   -2.5319    6.9435    6.5567   -8.6429
   29.7006   18.7720  -10.9518  -10.7702   -8.4087  -26.2637   20.9141  -30.7244    4.7738   22.3339
   31.4829  -28.1337  -46.5868  -46.2012   57.5792   16.0801   27.4474   -0.9449    4.4484   -3.0870
    9.8535   -5.1178   26.8076  -13.0104   54.2896 -350.6314  181.1917  -73.5673    8.8276    1.2677
   -9.7267   16.3960  -22.4057    8.9362  -15.9026   -1.2250   -5.1305   61.3413    5.1172   -2.8069
  515.8096
  -30.7240    8.6890   18.4409  -30.4112    7.0933   12.2170    7.5192  -12.3755  -36.6794   -0.9422
   21.5028   -1.2547  -29.5737    1.2003  -28.8460  -11.4757   23.5500   12.9298    8.0068   15.3113
  -17.4581   -9.8814   35.4422   -0.9502   14.8150  -43.8030  -11.7392   -2.6279    7.1866   41.5998
  -14.0601   -3.7669   -6.0653   20.6068   30.6396   11.6733  -14.9406  -13.6098    1.9202  -17.0603
   -0.7818  -29.7932   -2.3448   53.6055  -12.1312   21.4739    9.3886  -29.8852    2.3593   13.2403
    3.3271  -44.8884   19.8962  -12.4850   -9.7736  -20.9340   -2.6475   46.8102   -8.2803  -28.7438
  -18.2400   -1.7869   21.6567   23.6458  -30.1631    1.5300   -7.3030   24.2476   23.6340   32.4256
   22.3433   -1.9953   34.7621   -6.6294  -71.2706  168.6170 -219.4877    7.8833   17.4622  -20.0361
   51.7448  -23.9274   52.6753  -13.8483    6.5255   26.6337   -2.2066  -78.3877    6.7965  -19.0701
 -237.2470  362.7263
    4.7973   -3.2236    1.5376    2.8443   10.0239   -2.7899   -1.7197    7.0136   -1.6000   -7.0370
    7.9859   11.5258   15.3324   -9.9966   13.8889   -3.2780  -11.7842   17.0255   -3.0215   -7.8650
   -0.4700    2.3819   -1.6993  -11.1392   -2.8140   14.7752   -9.3494    6.9186   -8.4374   -4.5090
  -19.6262    1.6822    4.6004   -7.1244    9.2052   -7.8474    0.9482   -1.0301   -4.8782    7.4744
   16.4411   -1.0355   -1.3297  -25.6772   23.2620  -16.1763   -5.5470    3.7568    0.3726  -13.1600
  -11.9890  -21.7106   14.3558   13.7885    0.0176   26.6637   -1.5120   31.2378    4.7691   -6.3935
    6.9065   -1.1716   -6.8882   -5.4920    5.8312   -0.3455  -16.0218   -8.2854   18.2428  -13.0487
  -24.8214    5.8902   31.1396  -29.6989    6.6275  -75.1578   -5.5982  -62.9096   -6.0316   70.5377
  -33.5901   10.1678   -6.2228  -22.7453   11.7118  -21.1005  -13.3453   10.5010   -4.3576   -3.7017
   87.6355  -49.8773  183.8823
   40.3199    4.7139   10.8012    7.6059    3.6580   12.4841  -11.1601   -3.5901    0.0421    9.0220
   31.1580   -1.8263  -25.1167   -2.7918   14.3448   -2.8140    2.2425  -79.0122   21.6791   40.0725
  -39.8645   13.1765   31.9475   21.3939    8.7375  -63.1880   12.3354    7.8517   21.4677   27.5125
   25.6419   -6.8586  -17.0383   -1.1184  -11.4398   35.3405  -26.6615  -29.2431   -4.7257   10.5550
   -6.6288   -3.5123   -0.8412   48.4884   14.7879   22.5479   10.3833   -3.5436   26.4475   19.1115
   34.2506   -5.9316    2.9651   14.8135    5.2015  -14.2773    5.5449   10.1047   -9.8051    7.6354
  -58.2867   59.4609   -7.5301   41.8195  -93.3249  -21.1581  -19.1908   27.0563   51.8795   11.9468
   16.4091   -2.7059   45.9747    5.2942  -21.0616 -320.4122 -135.9810  -23.1863  -38.2734   -2.6644
   34.0948    4.9556   39.7087   37.7320   44.5629  -41.4187   26.1377    7.0066    7.5354   -8.1191
  -23.6344    0.9813  -15.4754  489.8667
   31.1773   19.6457   16.6097    7.4539    8.3496   -5.2654    7.2343    0.8095  -18.2825    4.3322
    2.5071  -22.9236  -14.1682   12.6692  -25.0269   24.2070    8.1449  -19.0910   12.6021   19.5137
   -3.8941    3.2895   18.0009   -9.6844    7.0832   -3.3470   -9.5029   -7.6960   17.8366   21.6393
   21.4726    1.8335    9.0046    0.4856   -2.0991   21.5914   -0.2749   13.0491    8.4643    6.1580
   -3.4080   19.2504   -0.7647   39.5766    5.6744   11.1170    3.1633    2.6750    3.8197   18.0720
    9.9228    1.5660   -4.1205   -4.2004  -25.7399  -52.2643   -3.6234   28.4185   -9.2939  -32.5246
    2.2437    1.1873    9.2494    2.4013  -27.6175    2.5642  -58.8803   15.6175   51.8794   26.7268
   62.6081  -40.5638    3.7313   -7.1062  -39.5228 -172.3222 -227.7052   -6.8717  -21.7531  -25.3496
   39.8804   10.0599   45.7869   19.9206   25.9642    3.9240    7.9396   -5.4192    7.8143    8.5040
  -15.4764   60.0511  -12.8552  271.6776  393.5067
   -4.9557    3.3052   -4.9468   -7.1541   -2.6979   -5.4131   -9.7081   -0.4948   16.0059    7.9865
    1.8741    1.7841   -0.3136    1.6174    8.3133    5.4383    3.4690  -27.1856   -0.5265    0.1445
   -3.1348    1.3275    6.3815   33.4709   -2.2026   -5.6922   18.0816    5.8163   -9.3271   -8.3485
   -6.8070    2.3408    1.5733    0.4535    0.2342   -1.8290    6.8525    9.4618   16.1373   -0.3212
   -2.4404   -5.7495   -0.2626    6.5174   -4.3187   -4.1415    9.1226    2.0364   -0.6107    4.3270
   10.1415   22.0737   -8.0738   22.4832    4.4138   20.1275    8.9086  -12.7371   13.8835    8.1380
  -11.7004   21.7083   12.2532   13.7251   -9.7356    8.6541    0.8020    1.7925   12.5214   -3.9602
  -17.5020   17.6488  -16.0422  -47.4238   -1.0781   12.1873    7.1373  -62.0443   30.0190   63.7752
  -15.2168   -5.0898   -6.2709   -5.5432   -0.1250  -11.6499    0.6643  -19.9400   16.8635  -11.0323
  -10.9679   11.8056   -4.0184  -33.1020  -45.1637  153.7657


      MOLECULAR POINT GROUP   :   C1  


          ALPHA EIGENVALUES  
 -47.16246 -46.89253 -46.84160 -46.70138 -40.80762 -35.96568 -35.85644 -30.52559
 -29.45845 -26.04679 -22.39549 -21.23472 -21.10240 -19.24418 -17.79300 -16.83899
 -16.62850 -16.49118 -16.35996 -16.28850 -16.19318 -15.98844 -15.87069 -15.66382
 -15.32741 -15.07078 -14.96145 -14.34672 -14.28502 -14.24984 -13.92714 -13.67877
 -13.51533 -13.22895 -12.76594 -12.04970 -11.93915 -11.55796 -11.35498 -11.30408
 -10.78183 -10.62746  -9.98911  -9.75955  -9.24965  -3.06456  -2.64904  -0.91662
  -0.62793  -0.18555   0.18225   0.43243   0.51707   0.63432   0.79335   0.80333
   0.86241   0.90362   0.96461   0.99131   1.02205   1.11191   1.29236   1.31374
   1.45534   1.57129   1.59784   2.28258   2.41665   2.66111   2.96414   2.99825
   3.11601   3.32571   3.61318   3.69549   4.52316   4.74163   4.76325   4.98127
   5.25837   5.50615   5.52918   6.52227  51.16989  52.89529  56.85151  97.42525
  98.24792  98.91862  99.59055 100.14475 100.49068 100.76585 101.54807 102.15076
 102.77575 103.45256 103.54763 103.70299 104.10879 104.52512 104.80937 105.17549
 105.39203 106.11895 107.19889


           BETA EIGENVALUES 
 -47.15430 -46.89016 -46.84103 -46.69489 -40.74916 -35.98694 -35.87895 -30.50170
 -29.52538 -26.08075 -22.38834 -21.23286 -21.09987 -19.25553 -17.78185 -16.83773
 -16.62437 -16.49210 -16.34788 -16.27963 -16.18670 -15.99227 -15.87234 -15.65867
 -15.30363 -15.04935 -14.96867 -14.32964 -14.28575 -14.25129 -13.92122 -13.68158
 -13.50440 -13.16150 -12.76587 -11.93783 -11.85095 -11.40892 -11.11998 -10.91354
 -10.52964  -9.80281  -9.65716  -9.39091  -2.78410  -2.60571  -2.28408  -0.94492
  -0.56322  -0.11051   0.17868   0.41580   0.52418   0.62751   0.76838   0.81050
   0.85735   0.90092   0.96124   0.98969   1.02168   1.10575   1.29528   1.31970
   1.43608   1.57711   1.61637   2.27229   2.41086   2.68679   2.94353   2.99931
   3.13028   3.35248   3.63046   3.70787   4.53775   4.74392   4.75681   4.97307
   5.26064   5.50670   5.52959   6.52275  51.61837  53.22405  57.10724  97.42544
  98.24932  98.91915  99.59151 100.14580 100.49673 100.76774 101.55056 102.15678
 102.78838 103.45713 103.55294 103.70615 104.10979 104.52665 104.81407 105.17595
 105.39318 106.12145 107.19896


              NET ATOMIC CHARGES AND DIPOLE CONTRIBUTIONS

  ATOM NO.   TYPE          CHARGE      No. of ELECS.   s-Pop       p-Pop       d-Pop       
    1         Mn          -0.068169        7.0682     1.14463     0.31080     5.61273
    2          P          -0.614015        5.6140     1.80364     3.77324     0.03714
    3          H           0.186385        0.8136     0.81362
    4          H           0.209863        0.7901     0.79014
    5          H           0.210576        0.7894     0.78942
    6          P          -0.611746        5.6117     1.80905     3.76778     0.03492
    7          H           0.188594        0.8114     0.81141
    8          H           0.198539        0.8015     0.80146
    9          H           0.201574        0.7984     0.79843
   10          P          -0.582206        5.5822     1.80174     3.74447     0.03600
   11          H           0.203001        0.7970     0.79700
   12          H           0.182500        0.8175     0.81750
   13          H           0.206305        0.7937     0.79369
   14          P          -0.548632        5.5486     1.78400     3.70674     0.05789
   15          H           0.214360        0.7856     0.78564
   16          H           0.122159        0.8778     0.87784
   17          H           0.206081        0.7939     0.79392
   18          C          -0.017843        4.0178     0.99037     3.02747
   19          C           0.180838        3.8192     1.09336     2.72580
   20          C           0.181464        3.8185     1.15068     2.66785
   21          C           0.188264        3.8117     1.08983     2.72191
   22          N          -0.222631        5.2226     1.82640     3.39624
   23          N          -0.111004        5.1110     1.73695     3.37405
   24          N          -0.222672        5.2227     1.82725     3.39542
   25          S           0.009443        5.9906     1.86041     4.05909     0.07106
   26          C          -0.240855        4.2409     1.08292     3.15793
   27          C          -0.421207        4.4212     1.05057     3.37064
   28          H           0.153743        0.8463     0.84626
   29          H           0.155854        0.8441     0.84415
   30          H           0.162479        0.8375     0.83752
   31          H           0.155610        0.8444     0.84439
   32          H           0.143347        0.8567     0.85665
 DIPOLE           X         Y         Z       TOTAL
 POINT-CHG.    -1.194    -0.018     3.642     3.832
 HYBRID        -0.027     0.659     0.332     0.738
 SUM           -1.221     0.641     3.973     4.206


          ATOMIC ORBITAL ELECTRON POPULATIONS

     Atom    s        px        py        pz      x^2-y^2     xz        z^2       yz        xy
    1 Mn   1.14463   0.08991   0.04316   0.17773   1.15461   1.02400   1.44227   1.06428   0.92757
    2  P   1.80364   1.10225   1.57649   1.09450   0.00378   0.00933   0.00668   0.00859   0.00877
    3  H   0.81362
    4  H   0.79014
    5  H   0.78942
    6  P   1.80905   1.34413   1.10340   1.32025   0.01087   0.00585   0.00251   0.01170   0.00400
    7  H   0.81141
    8  H   0.80146
    9  H   0.79843
   10  P   1.80174   1.18556   1.45809   1.10081   0.00980   0.00282   0.00556   0.01545   0.00237
   11  H   0.79700
   12  H   0.81750
   13  H   0.79369
   14  P   1.78400   1.45073   1.15649   1.09952   0.00809   0.01453   0.00778   0.01002   0.01748
   15  H   0.78564
   16  H   0.87784
   17  H   0.79392
   18  C   0.99037   0.90161   0.95395   1.17191
   19  C   1.09336   0.91830   0.89985   0.90765
   20  C   1.15068   0.88074   0.93728   0.84984
   21  C   1.08983   0.92327   0.90250   0.89614
   22  N   1.82640   1.09969   1.16411   1.13243
   23  N   1.73695   1.19377   1.07106   1.10922
   24  N   1.82725   1.10149   1.18021   1.11372
   25  S   1.86041   1.62232   1.23380   1.20296   0.01101   0.00594   0.01800   0.03371   0.00239
   26  C   1.08292   1.16443   1.01546   0.97804
   27  C   1.05057   1.19116   1.16008   1.01940
   28  H   0.84626
   29  H   0.84415
   30  H   0.83752
   31  H   0.84439
   32  H   0.85665


                    (SZ)    =    0.500000
                    (S**2)  =    1.744625


          ATOMIC ORBITAL SPIN POPULATIONS

    Atom   Total    s     px     py     pz   x^2-y^2  xz     z^2    yz     xy
         Atomic
    1 Mn  1.1202  0.016  0.000  0.000  0.001  0.305  0.074  0.202  0.210  0.313
    2  P -0.0017 -0.000 -0.000 -0.002  0.000 -0.000 -0.000  0.000  0.000  0.000
    3  H -0.0003 -0.000
    4  H  0.0002  0.000
    5  H -0.0003 -0.000
    6  P -0.0005  0.000 -0.001  0.000  0.000  0.000 -0.000  0.000 -0.000 -0.000
    7  H  0.0008  0.001
    8  H -0.0001 -0.000
    9  H -0.0001 -0.000
   10  P  0.0052  0.001  0.001  0.003  0.000  0.000  0.000  0.000  0.000  0.000
   11  H  0.0003  0.000
   12  H  0.0007  0.001
   13  H  0.0012  0.001
   14  P  0.0026  0.000  0.002  0.000 -0.000  0.000  0.000  0.000  0.000  0.000
   15  H -0.0002 -0.000
   16  H  0.0001  0.000
   17  H  0.0005  0.000
   18  C -0.0527 -0.002 -0.004 -0.004 -0.042
   19  C  0.0117  0.001  0.003  0.002  0.006
   20  C -0.0438 -0.006 -0.009 -0.005 -0.024
   21  C  0.0126  0.001  0.002  0.002  0.006
   22  N -0.0144 -0.000 -0.003 -0.002 -0.010
   23  N  0.0266  0.001  0.002  0.013  0.011
   24  N -0.0132 -0.000 -0.002 -0.001 -0.010
   25  S -0.0751  0.002 -0.058 -0.016 -0.007  0.000  0.001 -0.000  0.004 -0.000
   26  C  0.0220  0.002  0.001  0.011  0.008
   27  C -0.0007 -0.000 -0.000 -0.000 -0.000
   28  H  0.0007  0.001
   29  H  0.0001  0.000
   30  H  0.0001  0.000
   31  H -0.0014 -0.001
   32  H -0.0010 -0.001

 **********************
 *                    *
 * JOB ENDED NORMALLY *
 *                    *
 **********************



 TOTAL JOB TIME:            16.93 SECONDS

 == MOPAC DONE ==
