 *******************************************************************************
 ** Site#: 26130        For non-commercial use only     Version 16.299L 64BITS**
 *******************************************************************************
 ** Cite this program as: MOPAC2016, Version: 16.299L, James J. P. Stewart,   **
 ** Stewart Computational Chemistry, web: HTTP://OpenMOPAC.net. Days left: 350**
 *******************************************************************************
 **                                                                           **
 **                                MOPAC2016                                  **
 **                                                                           **
 *******************************************************************************

                              PM7 CALCULATION RESULTS


 *******************************************************************************
 *  CALCULATION DONE:                                Thu Nov 10 16:01:02 2016  *
 *  PM7        - The PM7 Hamiltonian to be used
 *  SEXTET     - SPIN STATE DEFINED AS A SEXTET
 *  UHF        - UNRESTRICTED HARTREE-FOCK CALCULATION
 *  XYZ        - CARTESIAN COORDINATE SYSTEM TO BE USED
 *  EF         - USE EF ROUTINE FOR MINIMUM SEARCH
 *  T=         - A TIME OF 172800.0 SECONDS REQUESTED
 *  DUMP=N     - RESTART FILE WRITTEN EVERY  7200.000 SECONDS
 *  HESSIAN    - WRITE OUT HESSIAN FROM GEOMERY OPTIMIZATION
 *******************************************************************************
 EF PM7 XYZ HESSIAN SEXTET UHF
 1007_M42_6

   ATOM   CHEMICAL          X               Y               Z
  NUMBER   SYMBOL      (ANGSTROMS)     (ANGSTROMS)     (ANGSTROMS)
 
     1      Mn          0.00000000  *   0.00000000  *   0.00000000  *
     2       P          0.00000000  *   2.45000000  *   0.00000000  *
     3       H         -0.99632000  *   2.91000400  *   0.83674500  *
     4       H          1.22283600  *   2.91002200  *   0.44448900  *
     5       H         -0.22651600  *   2.90996100  *  -1.28123400  *
     6       P          2.45000000  *   0.00000000  *   0.00000000  *
     7       H          2.91000400  *   1.28587500  *   0.19829900  *
     8       H          2.91002200  *  -0.81468600  *   1.01448800  *
     9       H          2.90996100  *  -0.47118900  *  -1.21278600  *
    10       P          0.00000000  *  -2.45000000  *   0.00000000  *
    11       H          1.29909400  *  -2.91000400  *   0.07177300  *
    12       H         -0.71171700  *  -2.91002200  *   1.08920000  *
    13       H         -0.58737600  *  -2.90996100  *  -1.16097300  *
    14       P         -2.45000000  *   0.00000000  *   0.00000000  *
    15       H         -2.91000400  *  -1.29657500  *  -0.10811700  *
    16       H         -2.91002200  *   0.55466300  *   1.17696500  *
    17       H         -2.90996100  *   0.74191200  *  -1.06884800  *
    18       C          0.00000000  *   0.00000000  *  -2.01000000  *
    19       C          0.50141300  *   1.28852300  *  -2.49309000  *
    20       C         -1.36663100  *  -0.21003200  *  -2.49326900  *
    21       C          0.86521700  *  -1.07849300  *  -2.49339000  *
    22       N          1.54918200  *  -1.93106400  *  -2.87434500  *
    23       N         -2.44690700  *  -0.37605500  *  -2.87407400  *
    24       N          0.89776800  *   2.30720000  *  -2.87387300  *
    25       S         -0.01717400  *  -0.03343400  *   2.40787200  *
    26       C         -0.01717400  *  -0.03343400  *   4.22526000  *
    27       C         -0.66919000  *  -1.30277300  *   4.75219400  *
    28       H         -0.66360400  *  -1.29197900  *   5.86243300  *
    29       H         -0.10954700  *  -2.19516500  *   4.39985200  *
    30       H         -1.72057100  *  -1.36768500  *   4.39985300  *
    31       H         -0.57765400  *   0.85380900  *   4.58822100  *
    32       H          1.03042700  *   0.02781300  *   4.58824200  *
 


          CARTESIAN COORDINATES 

    NO.       ATOM         X         Y         Z

     1        Mn        0.0000    0.0000    0.0000
     2         P        0.0000    2.4500    0.0000
     3         H       -0.9963    2.9100    0.8367
     4         H        1.2228    2.9100    0.4445
     5         H       -0.2265    2.9100   -1.2812
     6         P        2.4500    0.0000    0.0000
     7         H        2.9100    1.2859    0.1983
     8         H        2.9100   -0.8147    1.0145
     9         H        2.9100   -0.4712   -1.2128
    10         P        0.0000   -2.4500    0.0000
    11         H        1.2991   -2.9100    0.0718
    12         H       -0.7117   -2.9100    1.0892
    13         H       -0.5874   -2.9100   -1.1610
    14         P       -2.4500    0.0000    0.0000
    15         H       -2.9100   -1.2966   -0.1081
    16         H       -2.9100    0.5547    1.1770
    17         H       -2.9100    0.7419   -1.0688
    18         C        0.0000    0.0000   -2.0100
    19         C        0.5014    1.2885   -2.4931
    20         C       -1.3666   -0.2100   -2.4933
    21         C        0.8652   -1.0785   -2.4934
    22         N        1.5492   -1.9311   -2.8743
    23         N       -2.4469   -0.3761   -2.8741
    24         N        0.8978    2.3072   -2.8739
    25         S       -0.0172   -0.0334    2.4079
    26         C       -0.0172   -0.0334    4.2253
    27         C       -0.6692   -1.3028    4.7522
    28         H       -0.6636   -1.2920    5.8624
    29         H       -0.1095   -2.1952    4.3999
    30         H       -1.7206   -1.3677    4.3999
    31         H       -0.5777    0.8538    4.5882
    32         H        1.0304    0.0278    4.5882

 General Reference for PM7:
 "Optimization of Parameters for Semiempirical Methods VI: More Modifications to the 
 NDDO Approximations and Re-optimization of Parameters", J. J. P. Stewart, J. Mol. Mod., 1:32, 19 (2013)
 http://www.springerlink.com/openurl.asp?genre=article&id=doi:10.1007/s00894-012-1667-x

           Empirical Formula: C6 H17 N3 Mn P4 S  =    32 atoms



      MOLECULAR POINT GROUP   :   C1  


 SEXTET STATE CALCULATION


          UHF CALCULATION, NO. OF ALPHA ELECTRONS =   47
                           NO. OF BETA  ELECTRONS =   42

          Geometry optimization using EF


 ALL CONVERGERS ARE NOW FORCED ON
 SHIFT=10, PULAY ON, CAMP-KING ON
 AND ITERATION COUNTER RESET



          DIAGONAL MATRIX USED AS START HESSIAN

 CYCLE:     1 TIME:   2.738 TIME LEFT:  2.00D  GRAD.:   428.589 HEAT:  369.1278
 CYCLE:     2 TIME:   0.059 TIME LEFT:  2.00D  GRAD.:   319.246 HEAT:  299.8555
 CYCLE:     3 TIME:   0.062 TIME LEFT:  2.00D  GRAD.:   796.184 HEAT:  274.8800
 CYCLE:     4 TIME:   0.059 TIME LEFT:  2.00D  GRAD.:   140.575 HEAT:  200.9079
 CYCLE:     5 TIME:   0.059 TIME LEFT:  2.00D  GRAD.:   394.098 HEAT:  178.8215
 CYCLE:     6 TIME:   0.062 TIME LEFT:  2.00D  GRAD.:   706.760 HEAT:  176.1305
 CYCLE:     7 TIME:   0.059 TIME LEFT:  2.00D  GRAD.:   201.667 HEAT:  132.9634
 CYCLE:     8 TIME:   0.188 TIME LEFT:  2.00D  GRAD.:   176.797 HEAT:  123.1427
 CYCLE:     9 TIME:   0.113 TIME LEFT:  2.00D  GRAD.:   269.207 HEAT:  122.9895
 CYCLE:    10 TIME:   0.059 TIME LEFT:  2.00D  GRAD.:   198.108 HEAT:  116.8577
 CYCLE:    11 TIME:   0.062 TIME LEFT:  2.00D  GRAD.:   169.497 HEAT:  113.0382
 CYCLE:    12 TIME:   0.059 TIME LEFT:  2.00D  GRAD.:    54.562 HEAT:  107.2951
 CYCLE:    13 TIME:   0.074 TIME LEFT:  2.00D  GRAD.:    63.585 HEAT:  101.2873
 CYCLE:    14 TIME:   0.062 TIME LEFT:  2.00D  GRAD.:   109.200 HEAT:  91.88888
 CYCLE:    15 TIME:   0.062 TIME LEFT:  2.00D  GRAD.:    99.188 HEAT:  81.45568
 CYCLE:    16 TIME:   0.062 TIME LEFT:  2.00D  GRAD.:   144.776 HEAT:  74.54366
 CYCLE:    17 TIME:   0.117 TIME LEFT:  2.00D  GRAD.:   123.280 HEAT:  72.14864
 CYCLE:    18 TIME:   0.066 TIME LEFT:  2.00D  GRAD.:   177.792 HEAT:  71.95928
 CYCLE:    19 TIME:   0.055 TIME LEFT:  2.00D  GRAD.:    68.475 HEAT:  65.93277
 CYCLE:    20 TIME:   0.156 TIME LEFT:  2.00D  GRAD.:    87.698 HEAT:  64.78805
 CYCLE:    21 TIME:   0.082 TIME LEFT:  2.00D  GRAD.:    43.651 HEAT:  62.08601
 CYCLE:    22 TIME:   0.160 TIME LEFT:  2.00D  GRAD.:    52.954 HEAT:  61.26221
 CYCLE:    23 TIME:   0.078 TIME LEFT:  2.00D  GRAD.:    27.552 HEAT:  59.64252
 CYCLE:    24 TIME:   0.074 TIME LEFT:  2.00D  GRAD.:    62.902 HEAT:  58.50974
 CYCLE:    25 TIME:   0.082 TIME LEFT:  2.00D  GRAD.:    42.798 HEAT:  55.72634
 CYCLE:    26 TIME:   0.082 TIME LEFT:  2.00D  GRAD.:    76.088 HEAT:  54.80001
 CYCLE:    27 TIME:   0.086 TIME LEFT:  2.00D  GRAD.:    58.059 HEAT:  51.77521
 CYCLE:    28 TIME:   0.156 TIME LEFT:  2.00D  GRAD.:    84.605 HEAT:  51.73915
 CYCLE:    29 TIME:   0.082 TIME LEFT:  2.00D  GRAD.:    45.204 HEAT:  49.01997
 CYCLE:    30 TIME:   0.238 TIME LEFT:  2.00D  GRAD.:    42.116 HEAT:  48.55963
 CYCLE:    31 TIME:   0.074 TIME LEFT:  2.00D  GRAD.:    15.677 HEAT:  47.85432
 CYCLE:    32 TIME:   0.082 TIME LEFT:  2.00D  GRAD.:    41.913 HEAT:  47.50988
 CYCLE:    33 TIME:   0.082 TIME LEFT:  2.00D  GRAD.:    18.107 HEAT:  46.63689
 CYCLE:    34 TIME:   0.082 TIME LEFT:  2.00D  GRAD.:    43.642 HEAT:  46.42655
 CYCLE:    35 TIME:   0.082 TIME LEFT:  2.00D  GRAD.:    18.806 HEAT:  45.29609
 CYCLE:    36 TIME:   0.227 TIME LEFT:  2.00D  GRAD.:    25.415 HEAT:  45.20243
 CYCLE:    37 TIME:   0.066 TIME LEFT:  2.00D  GRAD.:    12.689 HEAT:  44.71858
 CYCLE:    38 TIME:   0.082 TIME LEFT:  2.00D  GRAD.:    20.016 HEAT:  44.40338
 CYCLE:    39 TIME:   0.082 TIME LEFT:  2.00D  GRAD.:    17.523 HEAT:  43.88257
 CYCLE:    40 TIME:   0.078 TIME LEFT:  2.00D  GRAD.:    26.809 HEAT:  43.33220
 CYCLE:    41 TIME:   0.082 TIME LEFT:  2.00D  GRAD.:    29.954 HEAT:  43.12124
 CYCLE:    42 TIME:   0.070 TIME LEFT:  2.00D  GRAD.:    26.572 HEAT:  42.57346
 CYCLE:    43 TIME:   0.082 TIME LEFT:  2.00D  GRAD.:    27.224 HEAT:  42.37913
 CYCLE:    44 TIME:   0.074 TIME LEFT:  2.00D  GRAD.:    21.680 HEAT:  41.74503
 CYCLE:    45 TIME:   0.055 TIME LEFT:  2.00D  GRAD.:    23.106 HEAT:  41.25736
 CYCLE:    46 TIME:   0.070 TIME LEFT:  2.00D  GRAD.:    29.528 HEAT:  40.71982
 CYCLE:    47 TIME:   0.059 TIME LEFT:  2.00D  GRAD.:    31.956 HEAT:  40.63647
 CYCLE:    48 TIME:   0.055 TIME LEFT:  2.00D  GRAD.:    24.387 HEAT:  40.43624
 CYCLE:    49 TIME:   0.113 TIME LEFT:  2.00D  GRAD.:    30.759 HEAT:  40.34130
 CYCLE:    50 TIME:   0.062 TIME LEFT:  2.00D  GRAD.:    11.918 HEAT:  40.10757
 CYCLE:    51 TIME:   0.188 TIME LEFT:  2.00D  GRAD.:    12.733 HEAT:  40.04826
 CYCLE:    52 TIME:   0.074 TIME LEFT:  2.00D  GRAD.:     6.853 HEAT:  39.97791
 CYCLE:    53 TIME:   0.062 TIME LEFT:  2.00D  GRAD.:     7.101 HEAT:  39.91537
 CYCLE:    54 TIME:   0.062 TIME LEFT:  2.00D  GRAD.:     7.532 HEAT:  39.82985
 CYCLE:    55 TIME:   0.059 TIME LEFT:  2.00D  GRAD.:     5.659 HEAT:  39.70360
 CYCLE:    56 TIME:   0.062 TIME LEFT:  2.00D  GRAD.:     9.874 HEAT:  39.59602
 CYCLE:    57 TIME:   0.066 TIME LEFT:  2.00D  GRAD.:    10.145 HEAT:  39.55091
 CYCLE:    58 TIME:   0.059 TIME LEFT:  2.00D  GRAD.:    10.080 HEAT:  39.51162
 CYCLE:    59 TIME:   0.059 TIME LEFT:  2.00D  GRAD.:    10.331 HEAT:  39.46260
 CYCLE:    60 TIME:   0.062 TIME LEFT:  2.00D  GRAD.:     6.012 HEAT:  39.41185
 CYCLE:    61 TIME:   0.062 TIME LEFT:  2.00D  GRAD.:     8.301 HEAT:  39.39408
 CYCLE:    62 TIME:   0.059 TIME LEFT:  2.00D  GRAD.:     5.532 HEAT:  39.33400
 CYCLE:    63 TIME:   0.062 TIME LEFT:  2.00D  GRAD.:     6.238 HEAT:  39.26715
 CYCLE:    64 TIME:   0.062 TIME LEFT:  2.00D  GRAD.:     6.186 HEAT:  39.23164
 CYCLE:    65 TIME:   0.062 TIME LEFT:  2.00D  GRAD.:     4.472 HEAT:  39.19657
 CYCLE:    66 TIME:   0.055 TIME LEFT:  2.00D  GRAD.:     4.689 HEAT:  39.17203
 CYCLE:    67 TIME:   0.062 TIME LEFT:  2.00D  GRAD.:     3.369 HEAT:  39.15240
 CYCLE:    68 TIME:   0.066 TIME LEFT:  2.00D  GRAD.:     5.686 HEAT:  39.13151
 CYCLE:    69 TIME:   0.062 TIME LEFT:  2.00D  GRAD.:     3.280 HEAT:  39.11045
 CYCLE:    70 TIME:   0.059 TIME LEFT:  2.00D  GRAD.:     2.705 HEAT:  39.09648
 CYCLE:    71 TIME:   0.059 TIME LEFT:  2.00D  GRAD.:     2.153 HEAT:  39.08171
 CYCLE:    72 TIME:   0.059 TIME LEFT:  2.00D  GRAD.:     2.284 HEAT:  39.07045
 CYCLE:    73 TIME:   0.055 TIME LEFT:  2.00D  GRAD.:     1.976 HEAT:  39.06314
 CYCLE:    74 TIME:   0.059 TIME LEFT:  2.00D  GRAD.:     2.101 HEAT:  39.05546
 CYCLE:    75 TIME:   0.059 TIME LEFT:  2.00D  GRAD.:     1.941 HEAT:  39.04975
 CYCLE:    76 TIME:   0.062 TIME LEFT:  2.00D  GRAD.:     2.577 HEAT:  39.03861
 CYCLE:    77 TIME:   0.055 TIME LEFT:  2.00D  GRAD.:     1.943 HEAT:  39.03125
 CYCLE:    78 TIME:   0.062 TIME LEFT:  2.00D  GRAD.:     3.353 HEAT:  39.01708
 CYCLE:    79 TIME:   0.055 TIME LEFT:  2.00D  GRAD.:     3.341 HEAT:  39.00490
 CYCLE:    80 TIME:   0.059 TIME LEFT:  2.00D  GRAD.:     2.067 HEAT:  38.99130
 CYCLE:    81 TIME:   0.059 TIME LEFT:  2.00D  GRAD.:     1.904 HEAT:  38.98345
 CYCLE:    82 TIME:   0.062 TIME LEFT:  2.00D  GRAD.:     3.136 HEAT:  38.97080
 CYCLE:    83 TIME:   0.055 TIME LEFT:  2.00D  GRAD.:     2.245 HEAT:  38.96278
 CYCLE:    84 TIME:   0.062 TIME LEFT:  2.00D  GRAD.:     2.810 HEAT:  38.95090
 CYCLE:    85 TIME:   0.059 TIME LEFT:  2.00D  GRAD.:     1.832 HEAT:  38.94268
 CYCLE:    86 TIME:   0.059 TIME LEFT:  2.00D  GRAD.:     1.114 HEAT:  38.93708
 CYCLE:    87 TIME:   0.059 TIME LEFT:  2.00D  GRAD.:     1.179 HEAT:  38.93016
 CYCLE:    88 TIME:   0.066 TIME LEFT:  2.00D  GRAD.:     1.771 HEAT:  38.92247
 CYCLE:    89 TIME:   0.059 TIME LEFT:  2.00D  GRAD.:     2.478 HEAT:  38.91225
 CYCLE:    90 TIME:   0.059 TIME LEFT:  2.00D  GRAD.:     2.202 HEAT:  38.89758
 CYCLE:    91 TIME:   0.062 TIME LEFT:  2.00D  GRAD.:     1.980 HEAT:  38.87595
 CYCLE:    92 TIME:   0.059 TIME LEFT:  2.00D  GRAD.:     1.832 HEAT:  38.86621
 CYCLE:    93 TIME:   0.070 TIME LEFT:  2.00D  GRAD.:     6.957 HEAT:  38.84332
 CYCLE:    94 TIME:   0.059 TIME LEFT:  2.00D  GRAD.:     4.766 HEAT:  38.82223
 CYCLE:    95 TIME:   0.059 TIME LEFT:  2.00D  GRAD.:     2.973 HEAT:  38.80044
 CYCLE:    96 TIME:   0.059 TIME LEFT:  2.00D  GRAD.:     3.813 HEAT:  38.77092
 CYCLE:    97 TIME:   0.059 TIME LEFT:  2.00D  GRAD.:     2.647 HEAT:  38.75366
 CYCLE:    98 TIME:   0.066 TIME LEFT:  2.00D  GRAD.:     1.851 HEAT:  38.73543
 CYCLE:    99 TIME:   0.062 TIME LEFT:  2.00D  GRAD.:     2.415 HEAT:  38.71528
 CYCLE:   100 TIME:   0.059 TIME LEFT:  2.00D  GRAD.:     3.268 HEAT:  38.69489
 CYCLE:   101 TIME:   0.062 TIME LEFT:  2.00D  GRAD.:     3.815 HEAT:  38.67616
 CYCLE:   102 TIME:   0.059 TIME LEFT:  2.00D  GRAD.:     5.408 HEAT:  38.64031
 CYCLE:   103 TIME:   0.059 TIME LEFT:  2.00D  GRAD.:     8.223 HEAT:  38.60241
 CYCLE:   104 TIME:   0.059 TIME LEFT:  2.00D  GRAD.:    25.715 HEAT:  38.54488
 CYCLE:   105 TIME:   0.059 TIME LEFT:  2.00D  GRAD.:     8.925 HEAT:  38.39149
 CYCLE:   106 TIME:   0.059 TIME LEFT:  2.00D  GRAD.:    14.956 HEAT:  38.15369
 CYCLE:   107 TIME:   0.059 TIME LEFT:  2.00D  GRAD.:    16.173 HEAT:  38.01540
 CYCLE:   108 TIME:   0.059 TIME LEFT:  2.00D  GRAD.:    10.900 HEAT:  37.74716
 CYCLE:   109 TIME:   0.059 TIME LEFT:  2.00D  GRAD.:    16.752 HEAT:  37.64727
 CYCLE:   110 TIME:   0.059 TIME LEFT:  2.00D  GRAD.:     6.418 HEAT:  37.52996
 CYCLE:   111 TIME:   0.059 TIME LEFT:  2.00D  GRAD.:     7.921 HEAT:  37.43317
 CYCLE:   112 TIME:   0.059 TIME LEFT:  2.00D  GRAD.:     7.149 HEAT:  37.29185
 CYCLE:   113 TIME:   0.059 TIME LEFT:  2.00D  GRAD.:     7.890 HEAT:  37.17626
 CYCLE:   114 TIME:   0.059 TIME LEFT:  2.00D  GRAD.:    11.045 HEAT:  37.05744
 CYCLE:   115 TIME:   0.059 TIME LEFT:  2.00D  GRAD.:    15.363 HEAT:  36.96189
 CYCLE:   116 TIME:   0.059 TIME LEFT:  2.00D  GRAD.:     8.322 HEAT:  36.87895
 CYCLE:   117 TIME:   0.059 TIME LEFT:  2.00D  GRAD.:     9.185 HEAT:  36.80063
 CYCLE:   118 TIME:   0.059 TIME LEFT:  2.00D  GRAD.:    12.543 HEAT:  36.73569
 CYCLE:   119 TIME:   0.062 TIME LEFT:  2.00D  GRAD.:     7.362 HEAT:  36.68864
 CYCLE:   120 TIME:   0.059 TIME LEFT:  2.00D  GRAD.:     4.784 HEAT:  36.61644
 CYCLE:   121 TIME:   0.055 TIME LEFT:  2.00D  GRAD.:     5.047 HEAT:  36.56055
 CYCLE:   122 TIME:   0.062 TIME LEFT:  2.00D  GRAD.:    10.276 HEAT:  36.44564
 CYCLE:   123 TIME:   0.062 TIME LEFT:  2.00D  GRAD.:    40.888 HEAT:  36.35780
 CYCLE:   124 TIME:   0.059 TIME LEFT:  2.00D  GRAD.:    25.149 HEAT:  36.26830
 CYCLE:   125 TIME:   0.059 TIME LEFT:  2.00D  GRAD.:    25.774 HEAT:  35.84323
 CYCLE:   126 TIME:   0.062 TIME LEFT:  2.00D  GRAD.:    70.417 HEAT:  35.51415
 CYCLE:   127 TIME:   0.078 TIME LEFT:  2.00D  GRAD.:    44.873 HEAT:  34.80447
 CYCLE:   128 TIME:   0.062 TIME LEFT:  2.00D  GRAD.:    32.716 HEAT:  33.63139
 CYCLE:   129 TIME:   0.129 TIME LEFT:  2.00D  GRAD.:    38.150 HEAT:  33.00163
 CYCLE:   130 TIME:   0.059 TIME LEFT:  2.00D  GRAD.:    30.509 HEAT:  31.82329
 CYCLE:   131 TIME:   0.062 TIME LEFT:  2.00D  GRAD.:    34.219 HEAT:  30.76949
 CYCLE:   132 TIME:   0.059 TIME LEFT:  2.00D  GRAD.:    75.651 HEAT:  29.62925
 CYCLE:   133 TIME:   0.070 TIME LEFT:  2.00D  GRAD.:    62.726 HEAT:  28.01133
 CYCLE:   134 TIME:   0.066 TIME LEFT:  2.00D  GRAD.:    60.269 HEAT:  26.01860
 CYCLE:   135 TIME:   0.059 TIME LEFT:  2.00D  GRAD.:    71.100 HEAT:  24.37118
 CYCLE:   136 TIME:   0.062 TIME LEFT:  2.00D  GRAD.:   100.375 HEAT:  23.02809
 CYCLE:   137 TIME:   0.066 TIME LEFT:  2.00D  GRAD.:    38.786 HEAT:  20.26272
 CYCLE:   138 TIME:   0.059 TIME LEFT:  2.00D  GRAD.:    22.993 HEAT:  18.62481
 CYCLE:   139 TIME:   0.062 TIME LEFT:  2.00D  GRAD.:    47.434 HEAT:  17.61956
 CYCLE:   140 TIME:   0.062 TIME LEFT:  2.00D  GRAD.:    45.265 HEAT:  16.79092
 CYCLE:   141 TIME:   0.059 TIME LEFT:  2.00D  GRAD.:    45.458 HEAT:  16.68419
 CYCLE:   142 TIME:   0.059 TIME LEFT:  2.00D  GRAD.:    34.804 HEAT:  15.38991
 CYCLE:   143 TIME:   0.117 TIME LEFT:  2.00D  GRAD.:    31.853 HEAT:  15.03104
 CYCLE:   144 TIME:   0.059 TIME LEFT:  2.00D  GRAD.:    24.638 HEAT:  14.45181
 CYCLE:   145 TIME:   0.059 TIME LEFT:  2.00D  GRAD.:    23.301 HEAT:  14.03948
 CYCLE:   146 TIME:   0.059 TIME LEFT:  2.00D  GRAD.:    22.375 HEAT:  13.65966
 CYCLE:   147 TIME:   0.059 TIME LEFT:  2.00D  GRAD.:    14.419 HEAT:  13.23975
 CYCLE:   148 TIME:   0.059 TIME LEFT:  2.00D  GRAD.:    22.238 HEAT:  12.97292
 CYCLE:   149 TIME:   0.055 TIME LEFT:  2.00D  GRAD.:    10.924 HEAT:  12.66165
 CYCLE:   150 TIME:   0.059 TIME LEFT:  2.00D  GRAD.:    10.312 HEAT:  12.53028
 CYCLE:   151 TIME:   0.059 TIME LEFT:  2.00D  GRAD.:     6.924 HEAT:  12.41231
 CYCLE:   152 TIME:   0.059 TIME LEFT:  2.00D  GRAD.:     8.780 HEAT:  12.31526
 CYCLE:   153 TIME:   0.078 TIME LEFT:  2.00D  GRAD.:    10.079 HEAT:  12.23067
 CYCLE:   154 TIME:   0.082 TIME LEFT:  2.00D  GRAD.:     9.899 HEAT:  12.08822
 CYCLE:   155 TIME:   0.066 TIME LEFT:  2.00D  GRAD.:     7.050 HEAT:  11.99065
 CYCLE:   156 TIME:   0.078 TIME LEFT:  2.00D  GRAD.:     6.639 HEAT:  11.91111
 CYCLE:   157 TIME:   0.082 TIME LEFT:  2.00D  GRAD.:     7.626 HEAT:  11.83322
 CYCLE:   158 TIME:   0.078 TIME LEFT:  2.00D  GRAD.:     6.244 HEAT:  11.77208
 CYCLE:   159 TIME:   0.082 TIME LEFT:  2.00D  GRAD.:     6.091 HEAT:  11.72332
 CYCLE:   160 TIME:   0.066 TIME LEFT:  2.00D  GRAD.:     5.493 HEAT:  11.69219
 CYCLE:   161 TIME:   0.082 TIME LEFT:  2.00D  GRAD.:     4.509 HEAT:  11.66826
 CYCLE:   162 TIME:   0.062 TIME LEFT:  2.00D  GRAD.:     4.788 HEAT:  11.64574
 CYCLE:   163 TIME:   0.059 TIME LEFT:  2.00D  GRAD.:     4.811 HEAT:  11.62068
 CYCLE:   164 TIME:   0.059 TIME LEFT:  2.00D  GRAD.:     6.909 HEAT:  11.58829
 CYCLE:   165 TIME:   0.059 TIME LEFT:  2.00D  GRAD.:     5.164 HEAT:  11.55855
 CYCLE:   166 TIME:   0.059 TIME LEFT:  2.00D  GRAD.:     8.927 HEAT:  11.49038
 CYCLE:   167 TIME:   0.059 TIME LEFT:  2.00D  GRAD.:     5.792 HEAT:  11.44754
 CYCLE:   168 TIME:   0.059 TIME LEFT:  2.00D  GRAD.:     6.658 HEAT:  11.37804
 CYCLE:   169 TIME:   0.059 TIME LEFT:  2.00D  GRAD.:     7.727 HEAT:  11.32477
 CYCLE:   170 TIME:   0.059 TIME LEFT:  2.00D  GRAD.:     4.968 HEAT:  11.28256
 CYCLE:   171 TIME:   0.055 TIME LEFT:  2.00D  GRAD.:     4.537 HEAT:  11.23492
 CYCLE:   172 TIME:   0.059 TIME LEFT:  2.00D  GRAD.:     9.060 HEAT:  11.18881
 CYCLE:   173 TIME:   0.062 TIME LEFT:  2.00D  GRAD.:     6.132 HEAT:  11.13788
 CYCLE:   174 TIME:   0.059 TIME LEFT:  2.00D  GRAD.:     4.887 HEAT:  11.08968
 CYCLE:   175 TIME:   0.059 TIME LEFT:  2.00D  GRAD.:     7.195 HEAT:  11.01161
 CYCLE:   176 TIME:   0.059 TIME LEFT:  2.00D  GRAD.:     4.251 HEAT:  10.95324
 CYCLE:   177 TIME:   0.059 TIME LEFT:  2.00D  GRAD.:     4.079 HEAT:  10.88686
 CYCLE:   178 TIME:   0.055 TIME LEFT:  2.00D  GRAD.:     8.117 HEAT:  10.84847
 CYCLE:   179 TIME:   0.059 TIME LEFT:  2.00D  GRAD.:     6.572 HEAT:  10.81192
 CYCLE:   180 TIME:   0.059 TIME LEFT:  2.00D  GRAD.:     6.217 HEAT:  10.77213
 CYCLE:   181 TIME:   0.055 TIME LEFT:  2.00D  GRAD.:     3.959 HEAT:  10.71952
 CYCLE:   182 TIME:   0.059 TIME LEFT:  2.00D  GRAD.:     5.329 HEAT:  10.67355
 CYCLE:   183 TIME:   0.055 TIME LEFT:  2.00D  GRAD.:     6.876 HEAT:  10.62360
 CYCLE:   184 TIME:   0.059 TIME LEFT:  2.00D  GRAD.:     4.689 HEAT:  10.59283
 CYCLE:   185 TIME:   0.055 TIME LEFT:  2.00D  GRAD.:     7.538 HEAT:  10.55516
 CYCLE:   186 TIME:   0.055 TIME LEFT:  2.00D  GRAD.:     6.865 HEAT:  10.50097
 CYCLE:   187 TIME:   0.059 TIME LEFT:  2.00D  GRAD.:     4.971 HEAT:  10.43617
 CYCLE:   188 TIME:   0.055 TIME LEFT:  2.00D  GRAD.:     5.522 HEAT:  10.38449
 CYCLE:   189 TIME:   0.059 TIME LEFT:  2.00D  GRAD.:     3.615 HEAT:  10.35056
 CYCLE:   190 TIME:   0.055 TIME LEFT:  2.00D  GRAD.:     5.757 HEAT:  10.31046
 CYCLE:   191 TIME:   0.059 TIME LEFT:  2.00D  GRAD.:     3.948 HEAT:  10.28591
 CYCLE:   192 TIME:   0.055 TIME LEFT:  2.00D  GRAD.:     4.778 HEAT:  10.25643
 CYCLE:   193 TIME:   0.059 TIME LEFT:  2.00D  GRAD.:     4.230 HEAT:  10.22946
 CYCLE:   194 TIME:   0.059 TIME LEFT:  2.00D  GRAD.:     4.203 HEAT:  10.18367
 CYCLE:   195 TIME:   0.055 TIME LEFT:  2.00D  GRAD.:     6.059 HEAT:  10.13948
 CYCLE:   196 TIME:   0.059 TIME LEFT:  2.00D  GRAD.:     4.740 HEAT:  10.09416
 CYCLE:   197 TIME:   0.059 TIME LEFT:  2.00D  GRAD.:     9.314 HEAT:  10.02480
 CYCLE:   198 TIME:   0.055 TIME LEFT:  2.00D  GRAD.:    10.837 HEAT:  9.965085
 CYCLE:   199 TIME:   0.059 TIME LEFT:  2.00D  GRAD.:     6.852 HEAT:  9.901137
 CYCLE:   200 TIME:   0.059 TIME LEFT:  2.00D  GRAD.:     6.908 HEAT:  9.852255
 CYCLE:   201 TIME:   0.059 TIME LEFT:  2.00D  GRAD.:     6.225 HEAT:  9.833302
 CYCLE:   202 TIME:   0.055 TIME LEFT:  2.00D  GRAD.:     3.840 HEAT:  9.799071
 CYCLE:   203 TIME:   0.059 TIME LEFT:  2.00D  GRAD.:     4.591 HEAT:  9.768226
 CYCLE:   204 TIME:   0.059 TIME LEFT:  2.00D  GRAD.:     4.517 HEAT:  9.733429
 CYCLE:   205 TIME:   0.059 TIME LEFT:  2.00D  GRAD.:     7.006 HEAT:  9.680182
 CYCLE:   206 TIME:   0.059 TIME LEFT:  2.00D  GRAD.:     3.110 HEAT:  9.644942
 CYCLE:   207 TIME:   0.059 TIME LEFT:  2.00D  GRAD.:     3.531 HEAT:  9.620083
 CYCLE:   208 TIME:   0.055 TIME LEFT:  2.00D  GRAD.:     3.281 HEAT:  9.592180
 CYCLE:   209 TIME:   0.066 TIME LEFT:  2.00D  GRAD.:     2.882 HEAT:  9.568885
 CYCLE:   210 TIME:   0.070 TIME LEFT:  2.00D  GRAD.:     3.766 HEAT:  9.542666
 CYCLE:   211 TIME:   0.059 TIME LEFT:  2.00D  GRAD.:     3.307 HEAT:  9.524365
 CYCLE:   212 TIME:   0.059 TIME LEFT:  2.00D  GRAD.:     3.712 HEAT:  9.492735
 CYCLE:   213 TIME:   0.059 TIME LEFT:  2.00D  GRAD.:     4.889 HEAT:  9.461263
 CYCLE:   214 TIME:   0.059 TIME LEFT:  2.00D  GRAD.:     5.238 HEAT:  9.438279
 CYCLE:   215 TIME:   0.059 TIME LEFT:  2.00D  GRAD.:     3.372 HEAT:  9.415378
 CYCLE:   216 TIME:   0.055 TIME LEFT:  2.00D  GRAD.:     2.075 HEAT:  9.400095
 CYCLE:   217 TIME:   0.059 TIME LEFT:  2.00D  GRAD.:     2.385 HEAT:  9.388229
 CYCLE:   218 TIME:   0.059 TIME LEFT:  2.00D  GRAD.:     2.352 HEAT:  9.375431
 CYCLE:   219 TIME:   0.055 TIME LEFT:  2.00D  GRAD.:     2.159 HEAT:  9.364289
 CYCLE:   220 TIME:   0.059 TIME LEFT:  2.00D  GRAD.:     1.926 HEAT:  9.354375
 CYCLE:   221 TIME:   0.059 TIME LEFT:  2.00D  GRAD.:     1.814 HEAT:  9.347584
 CYCLE:   222 TIME:   0.059 TIME LEFT:  2.00D  GRAD.:     2.064 HEAT:  9.338009
 CYCLE:   223 TIME:   0.055 TIME LEFT:  2.00D  GRAD.:     2.295 HEAT:  9.329100
 CYCLE:   224 TIME:   0.059 TIME LEFT:  2.00D  GRAD.:     1.737 HEAT:  9.317302
 CYCLE:   225 TIME:   0.059 TIME LEFT:  2.00D  GRAD.:     1.808 HEAT:  9.309530
 CYCLE:   226 TIME:   0.059 TIME LEFT:  2.00D  GRAD.:     2.658 HEAT:  9.304111
 CYCLE:   227 TIME:   0.055 TIME LEFT:  2.00D  GRAD.:     2.983 HEAT:  9.297369
 CYCLE:   228 TIME:   0.059 TIME LEFT:  2.00D  GRAD.:     2.447 HEAT:  9.290908
 CYCLE:   229 TIME:   0.055 TIME LEFT:  2.00D  GRAD.:     1.659 HEAT:  9.283447
 CYCLE:   230 TIME:   0.059 TIME LEFT:  2.00D  GRAD.:     1.381 HEAT:  9.279788
 CYCLE:   231 TIME:   0.059 TIME LEFT:  2.00D  GRAD.:     2.024 HEAT:  9.273164
 CYCLE:   232 TIME:   0.059 TIME LEFT:  2.00D  GRAD.:     2.327 HEAT:  9.267876
 CYCLE:   233 TIME:   0.059 TIME LEFT:  2.00D  GRAD.:     2.606 HEAT:  9.256482
 CYCLE:   234 TIME:   0.055 TIME LEFT:  2.00D  GRAD.:     2.510 HEAT:  9.246101
 CYCLE:   235 TIME:   0.062 TIME LEFT:  2.00D  GRAD.:     3.641 HEAT:  9.208063
 CYCLE:   236 TIME:   0.059 TIME LEFT:  2.00D  GRAD.:     3.275 HEAT:  9.190612
 CYCLE:   237 TIME:   0.055 TIME LEFT:  2.00D  GRAD.:     2.223 HEAT:  9.173614
 CYCLE:   238 TIME:   0.059 TIME LEFT:  2.00D  GRAD.:     1.998 HEAT:  9.158937
 CYCLE:   239 TIME:   0.062 TIME LEFT:  2.00D  GRAD.:     2.539 HEAT:  9.150261
 CYCLE:   240 TIME:   0.055 TIME LEFT:  2.00D  GRAD.:     2.908 HEAT:  9.142721
 CYCLE:   241 TIME:   0.062 TIME LEFT:  2.00D  GRAD.:     2.675 HEAT:  9.132542
 CYCLE:   242 TIME:   0.059 TIME LEFT:  2.00D  GRAD.:     2.744 HEAT:  9.124067
 CYCLE:   243 TIME:   0.055 TIME LEFT:  2.00D  GRAD.:     3.178 HEAT:  9.112341
 CYCLE:   244 TIME:   0.059 TIME LEFT:  2.00D  GRAD.:     3.790 HEAT:  9.092939
 CYCLE:   245 TIME:   0.055 TIME LEFT:  2.00D  GRAD.:     2.898 HEAT:  9.082586
 CYCLE:   246 TIME:   0.059 TIME LEFT:  2.00D  GRAD.:     2.639 HEAT:  9.064833
 CYCLE:   247 TIME:   0.062 TIME LEFT:  2.00D  GRAD.:     2.592 HEAT:  9.057979
 CYCLE:   248 TIME:   0.059 TIME LEFT:  2.00D  GRAD.:     2.194 HEAT:  9.050559
 CYCLE:   249 TIME:   0.066 TIME LEFT:  2.00D  GRAD.:     1.658 HEAT:  9.045235
 CYCLE:   250 TIME:   0.078 TIME LEFT:  2.00D  GRAD.:     1.117 HEAT:  9.041343
 CYCLE:   251 TIME:   0.082 TIME LEFT:  2.00D  GRAD.:     1.295 HEAT:  9.038240
 CYCLE:   252 TIME:   0.082 TIME LEFT:  2.00D  GRAD.:     1.457 HEAT:  9.035679
 CYCLE:   253 TIME:   0.082 TIME LEFT:  2.00D  GRAD.:     1.324 HEAT:  9.033590
 CYCLE:   254 TIME:   0.074 TIME LEFT:  2.00D  GRAD.:     1.043 HEAT:  9.031311
 CYCLE:   255 TIME:   0.082 TIME LEFT:  2.00D  GRAD.:     0.947 HEAT:  9.029256

     GRADIENT =  0.94706  IS LESS THAN CUTOFF =  1.00000



 -------------------------------------------------------------------------------
 EF PM7 XYZ HESSIAN SEXTET UHF
 1007_M42_6



     GEOMETRY OPTIMISED USING EIGENVECTOR FOLLOWING (EF).     
     SCF FIELD WAS ACHIEVED                                   


                              PM7 CALCULATION
                                                       MOPAC2016 (Version: 16.299L)
                                                       Thu Nov 10 16:01:22 2016
                                                       No. of days remaining = 350




          FINAL HEAT OF FORMATION =          9.02925 KCAL/MOL =      37.77839 KJ/MOL


          TOTAL ENERGY            =      -2635.97869 EV
          ELECTRONIC ENERGY       =     -15170.95146 EV  POINT GROUP:     C1  
          CORE-CORE REPULSION     =      12534.97277 EV
          COSMO AREA              =        320.84 SQUARE ANGSTROMS
          COSMO VOLUME            =        407.72 CUBIC ANGSTROMS

          GRADIENT NORM           =          0.94706
          IONIZATION POTENTIAL    =          8.967137 EV
          ALPHA SOMO LUMO (EV)    =         -8.998 -0.496
          BETA  SOMO LUMO (EV)    =         -8.967 -3.053
          NO. OF ALPHA ELECTRONS  =         47
          NO. OF BETA  ELECTRONS  =         42
          MOLECULAR WEIGHT        =        342.1134

          MOLECULAR DIMENSIONS (Angstroms)

            Atom       Atom       Distance
            H    28    N    22     9.16252
            H     8    H    16     8.55054
            H    12    H     3     8.31069


          SCF CALCULATIONS        =        272
 
          WALL-CLOCK TIME         =         19.770 SECONDS
          COMPUTATION TIME        =  1 MINUTE AND 15.060 SECONDS




   ATOM   CHEMICAL          X               Y               Z
  NUMBER   SYMBOL      (ANGSTROMS)     (ANGSTROMS)     (ANGSTROMS)
 
     1      Mn         -0.16256296  *   0.04928960  *   0.93263398  *
     2       P         -0.10781137  *   3.09889295  *  -0.14191854  *
     3       H         -0.40805412  *   4.05921570  *   0.95379394  *
     4       H          1.11799262  *   3.66310364  *  -0.77408429  *
     5       H         -1.17531537  *   3.37024165  *  -1.14360846  *
     6       P          2.85141377  *  -0.03876168  *  -0.26125957  *
     7       H          3.18852169  *   1.04917472  *  -1.22050159  *
     8       H          3.93085023  *   0.05876391  *   0.76148141  *
     9       H          3.20481249  *  -1.27675828  *  -1.01050028  *
    10       P         -0.16224629  *  -3.14280708  *   0.00550579  *
    11       H          0.65047249  *  -3.35276998  *  -1.23370866  *
    12       H          0.19854773  *  -4.33768771  *   0.82841541  *
    13       H         -1.53517394  *  -3.49274141  *  -0.46134212  *
    14       P         -3.30645405  *   0.28763263  *  -0.43192102  *
    15       H         -3.49168036  *  -0.93569365  *   0.39320571  *
    16       H         -4.72603415  *   0.82924770  *  -0.31490314  *
    17       H         -3.40035482  *  -0.23331731  *  -1.82665337  *
    18       C          0.40056586  *  -0.00462229  *  -2.53009609  *
    19       C          0.63889389  *   1.28660413  *  -3.02532989  *
    20       C         -0.39687388  *  -0.15244015  *  -1.43258780  *
    21       C          1.01805960  *  -1.14098034  *  -3.07456943  *
    22       N          1.53237675  *  -2.11362907  *  -3.44171651  *
    23       N         -1.23474968  *  -0.27840854  *  -0.55228594  *
    24       N          0.83530613  *   2.38584538  *  -3.33975526  *
    25       S          0.66740846  *   0.31392365  *   2.97753170  *
    26       C         -0.61923844  *  -0.13773266  *   4.24889270  *
    27       C         -0.99814135  *  -1.60672665  *   4.25859703  *
    28       H         -1.52204395  *  -1.86168773  *   5.19302437  *
    29       H         -0.12450618  *  -2.27040272  *   4.20112705  *
    30       H         -1.67602207  *  -1.88217243  *   3.44221463  *
    31       H         -1.50961469  *   0.50709748  *   4.13469712  *
    32       H         -0.14652507  *   0.14620533  *   5.21280168  *

                             CARTESIAN COORDINATES

   1   Mn       -0.162562959     0.049289604     0.932633984
   2    P       -0.107811368     3.098892951    -0.141918543
   3    H       -0.408054124     4.059215696     0.953793936
   4    H        1.117992624     3.663103639    -0.774084292
   5    H       -1.175315370     3.370241648    -1.143608465
   6    P        2.851413774    -0.038761675    -0.261259574
   7    H        3.188521689     1.049174715    -1.220501593
   8    H        3.930850228     0.058763914     0.761481413
   9    H        3.204812494    -1.276758283    -1.010500280
  10    P       -0.162246292    -3.142807076     0.005505788
  11    H        0.650472491    -3.352769979    -1.233708656
  12    H        0.198547733    -4.337687712     0.828415412
  13    H       -1.535173944    -3.492741413    -0.461342116
  14    P       -3.306454049     0.287632626    -0.431921024
  15    H       -3.491680364    -0.935693648     0.393205709
  16    H       -4.726034149     0.829247700    -0.314903135
  17    H       -3.400354821    -0.233317314    -1.826653372
  18    C        0.400565855    -0.004622293    -2.530096094
  19    C        0.638893885     1.286604134    -3.025329891
  20    C       -0.396873885    -0.152440153    -1.432587797
  21    C        1.018059603    -1.140980341    -3.074569430
  22    N        1.532376746    -2.113629068    -3.441716513
  23    N       -1.234749676    -0.278408542    -0.552285942
  24    N        0.835306127     2.385845378    -3.339755257
  25    S        0.667408456     0.313923651     2.977531703
  26    C       -0.619238445    -0.137732663     4.248892703
  27    C       -0.998141346    -1.606726650     4.258597033
  28    H       -1.522043950    -1.861687729     5.193024374
  29    H       -0.124506177    -2.270402715     4.201127051
  30    H       -1.676022068    -1.882172428     3.442214631
  31    H       -1.509614693     0.507097481     4.134697116
  32    H       -0.146525074     0.146205330     5.212801678


           Empirical Formula: C6 H17 N3 Mn P4 S  =    32 atoms

    Hessian matrix from geometry optimization
  559.1112
   18.7894  183.1124
  632.1069   36.9366 1392.6988
  -92.8529   -8.0617  -42.9460  532.2414
  -26.3933  -82.3855   -0.6184   33.2328  507.6101
  -39.5341    3.4042 -118.7837  -46.8612   10.8806  513.0106
    4.6048  -10.5065  -10.0040 -145.0170   70.1810   82.8748  205.3872
   -0.7785   16.5654   14.5432   87.1029 -180.1117 -157.0555  -80.0335  192.1608
    9.4644   12.0746   46.5656   79.5084 -176.8816 -241.3277 -140.5162  189.7123  438.1593
   65.6850   28.4993    4.4544 -354.6564 -178.5986   71.1926   20.0049   10.8865   36.6091  602.0976
   37.4672   30.5119    2.9209 -164.6753 -125.5932   41.5439   20.1701   20.2367    6.8744  180.6432
  163.4858
   -7.0810   -8.2344   -5.9985   39.6280   38.0222 -103.2586   14.7321    2.5316  -30.7223  -64.8020
  -24.8190  194.1265
   12.3941    1.5876   22.8839 -145.0400   40.0708 -104.4495   19.4361  -10.8528  -17.9392   -0.0258
    8.1933   11.2546  284.2201
  -12.4048   17.0413  -25.3691   53.6765  -83.6345   98.6332  -15.8099   11.3348  -42.3316  -11.0069
  -14.8101  -18.1827  -35.7498   93.7357
    2.5296  -13.6478   42.1724  -89.0352   74.4642 -268.3538  -12.9703   -1.2521   -2.9390  -34.2485
   -2.6050   30.4928  147.5717  -77.3982  391.5431
 -111.6590    1.0262   15.9104  -80.0176   35.1217   17.2785   13.3922  -11.5929  -43.5111   13.7852
   11.5394    9.0026   35.5162  -11.3500   29.6849  559.0226
   -2.5209  -55.1380   65.1913  144.6182  -61.0595  -30.2073  -25.9474   26.7938   30.2621  -35.5411
  -19.1069   -0.7632  -15.5337   -7.0187   17.7118   18.4560  575.5145
   13.3033    4.9214 -145.1555   16.6348    7.0937  -74.9900    9.1150   17.2103   -2.1120  -17.1745
   -8.1676   12.7637   15.8891   -4.2644   14.3624  -56.7204  -26.8957  602.7302
   34.7327    7.7461    8.5955  -25.8655    1.5391    3.6356    2.4390  -19.5548   -2.0419  -10.2539
   -1.4700   -6.2816  -10.5667   -1.9240   -2.3305  -86.0056 -107.1514   36.8405  133.2344
   53.0747   42.3743  -25.2789  -38.5622  -48.1408  -15.4514  -13.8091   -4.3960   42.1559   13.5531
  -10.7486   -0.9837  -36.2615   31.1817  -56.4801 -181.3493 -352.1382  165.2455  102.1085  662.8261
  -27.9632  -17.0499   27.5291   20.4979   -6.0250    5.0536  -11.2840    9.7560   10.3959   -6.5519
    5.7397   -0.4022   14.6305   -4.8974   21.7216   59.8513  120.7557 -207.5892  -34.6489 -218.7905
  262.4290
   28.2302    2.2195   28.4193   12.5490  -25.0218   14.4277    5.4944  -12.4163   23.3055   27.7774
   -9.8680    7.0833   -1.4853    7.8985   -9.8515 -282.4241    4.2330 -179.5421   10.0456  115.5990
  -22.2594  346.4098
  -12.5772   16.3854  -25.2014   -2.7989   32.2166    9.9668    3.6970   -3.6395  -33.3199  -40.0569
  -23.6448   12.5378   11.3719    9.8167   -1.3735   20.5082 -109.7622   30.6016   39.7896    7.8553
   40.7543  -44.7690  196.2439
   37.2185    3.7496   22.7855    3.6445  -56.7785  -19.4006  -16.1994    1.9169   45.6384   40.8429
    4.3814  -11.0648  -34.8666   -2.1208  -23.2198 -211.3547   -8.1824 -170.6939   24.2117  155.6575
  -70.6151  273.5726  -47.1424  443.5097
   33.7094  -11.6016  -43.5364   11.3831  -12.7028   -7.7902   16.9295    1.6646  -11.2039   19.2916
  -13.3408   -7.8610    4.7251   11.7155   -7.2350 -130.5485   73.9801  118.7820    3.0409   18.2354
  -16.3924   10.5700  -24.5210  -14.6153  123.8704
  -53.2643   20.5437  -28.0585  -13.9308   57.6715   23.4753  -23.0599    7.6530   -7.1395  -59.3221
   -7.6558   11.6969   -0.0633   -0.7677    9.5751  148.2678 -203.5388 -137.0836   -5.5271 -156.9596
   14.7706  -71.9899   58.9820 -129.5930 -104.6808  459.5459
  -48.0987    6.2101   92.6835  -35.9219   45.6385   28.7878  -12.9167   -4.3986   -7.8055  -34.0330
    9.7322   -2.5172    2.5528  -23.7093   19.5993  175.2565  -88.9512 -340.1187  -18.1216 -138.7722
   92.4169  -37.5489  -22.4406  -87.8900 -126.4305  271.9664  492.9523
  -64.2892   16.7283  -66.2098   -0.7282  -17.8605   12.8913   14.7324    2.0505    4.8181  -10.4340
   -1.9994    8.9257    4.3737   21.2509  -13.8859  -86.1064 -230.3476   18.3464   -6.4396  146.8592
   -8.8972   16.1823   35.1769  -12.4320   -5.6201   -0.1358    3.4517  617.5986
   22.9154 -107.6445   11.3939   12.9651  -37.7868   18.0492    3.5650    9.2063   17.8708  -37.8716
   14.5497  -29.1330  -31.4674    8.1466   -6.1227   -0.5315  -92.2616   -3.4584   33.3135   32.7224
   -5.9384  -22.3183   -9.1551   10.4817  -32.0352   24.0629   44.0169  -26.9732  584.6415
  -38.9006    0.6464  -72.4249  -19.8233  -35.6417   46.5009    0.3774    9.6628   56.8545   55.5335
    7.5429   -8.5974  -40.5122   27.1534  -38.2077   22.3029  -19.7090 -180.3345    2.2349   38.3270
   35.5510   60.5146  -43.0351   28.5926  -41.5428   24.6622   79.6047   12.8983  -83.7937  611.1180
   59.4835  -33.3427   27.9482   32.3691  -16.3504   -1.1846   -7.9049   26.4268   68.2898  -25.4499
    0.1798  -51.7720  -57.8538   -3.6332   -0.4681  -20.6045   58.0288  -28.9855   38.4500    3.9407
   -4.8084   10.7325  -14.3705   55.7879   -2.6918   24.6687  -16.5896 -329.5032  132.4945  124.0312
  577.8541
  -13.9708   22.8082    0.7938  -11.0620    4.4396    9.2601    8.7056  -21.2743    0.9610    3.2961
  -15.0871   21.2531    5.0833    2.5757   23.8842   -3.1522  -20.9034    7.0616   -1.4920   15.9282
   -6.8946   24.6704   10.7417  -15.0372   -2.5580    1.6020  -10.5316  100.5229  -90.6660  -53.5284
  -94.8454  114.3181
  -19.2671   29.7427   39.9017   15.9610   49.1755  -19.2763   20.6661   -6.3207  -64.6738  -50.8699
  -16.8319   -3.7029   39.1347  -11.6895   34.4402   15.2621  -10.1424   16.3352   -7.3742  -32.8431
   -6.9150   -4.5674    6.1301  -21.1764  -15.5611    6.2972   25.1926  127.5031  -48.2487 -225.1993
 -228.0132   28.5672  392.7732
   11.7670   -5.7457    8.3018   -9.1000  -18.3415   -2.5304  -19.3505  -15.9782   15.3737   -9.8965
  -15.1228   17.6853  -25.9802    8.9578  -10.9232   -7.7074   15.7094    4.6352    9.7601   21.3254
  -17.8702   17.4483  -10.0137   15.4707    6.2492    4.0905  -17.9109  -92.7532   10.6348  -12.0388
  -15.5666  -27.6994  -30.4375  216.4310
  -23.9705   59.2594  -12.5355  -18.9377   12.9162   -1.5772  -12.6575    0.9112    4.9841   20.5213
    4.8991    6.2790   10.2975    3.4073    5.6440   27.6662   10.8549  -72.0435   19.6861  -26.9371
    7.8485   -0.1091  -10.1998   -7.6328  -22.9532   25.3913   39.8027   41.7962 -330.5304  244.6957
  -67.1519    9.7477   22.6974  -26.3638  395.3229
   26.0386  -41.8387    0.5829   17.1933   26.5585   -2.3529   20.0604   -6.7719  -45.4185  -60.9856
    6.1402  -31.5909  -15.2152  -13.3094    3.2069  -36.2760  -10.0931   34.0834    2.8415   22.7042
   -3.2406   -0.0647    1.9987   42.6357    6.2353  -26.5027   -8.2666  -24.3083  254.1872 -304.7785
   47.5326    3.6153  -45.6115   19.4568 -338.4662  505.0698
    7.6416   -9.4286  -27.8777   18.2506   58.5948    5.8375    1.7884  -20.9904  -77.6386  -57.8350
  -27.5389    3.0412  -12.3187   -5.8601   -5.5616   31.1319   80.2797   30.2513  -14.8518  -35.4943
  -22.2732    3.6662   45.2709  -13.4851   21.7778   21.4956   -6.5474 -268.0866  -88.0482 -140.7751
  -91.4765    0.6088   43.2109    4.8113   -9.7211   13.8508  486.6111
   12.3156    5.6354  -16.2887    8.7971   20.6022  -11.5652   -9.9277   17.8940  -14.8336   -5.6264
   17.3177    1.2709   10.1676   -4.6418   -0.6872   -4.1168   47.7645   49.8413  -46.9930  -36.7614
    0.4258  -10.9193   16.1822  -22.6635   23.3656   12.0980  -39.6404 -108.7793  -90.6351  -84.5886
   29.3357  -12.3232  -10.6175   48.1653  -26.7841   63.2616   98.3333  140.9198
   -4.4945   14.2779  -31.7304   31.2311   43.4209  -15.2690  -22.8562  -10.5104  -57.5075  -48.7160
   -0.9944    1.4699   18.2329  -22.4213  -14.6891   -5.8084   61.0237   53.7891  -24.1828  -45.1406
  -10.0128   -4.6571   49.6824   -6.1799   22.2894    5.9062  -36.4203 -103.2891 -100.8354 -208.1886
  -32.5150    9.0820   46.3192   -4.1382   11.8283   14.7941  206.6648   75.1225  330.1315
 -158.3164   13.3464 -127.3059  -55.6408  -20.4565   15.2150   -5.0026    5.2443    5.7201   24.4100
   20.0910  -24.0627   -3.6343    5.0522    0.8737  -64.5934   23.4425  -32.2902   -2.1852  -13.2367
   11.2833   27.6266  -21.6525    9.4197    3.8873   10.4069   -4.7935  -95.5861    6.9212    8.0853
   58.5187  -30.7388  -17.1308    4.4345   14.6614   -3.8547   -3.3122   14.7581   15.1653  555.3864
   37.8945  -43.2692   11.2308 -173.9515 -131.4202  -35.6997   14.9608    3.4826   36.8049   77.3918
   44.0092  -10.7022   -8.0516   -3.7762    4.7641  -74.2429    0.7917   28.8587  -13.5449  143.9647
  -15.0917   52.4275   -1.6086   70.5151   29.3130  -79.5211  -82.6164  251.6321  -87.1101   38.9060
  -67.9248   37.0641   -3.4652   10.6511    6.7999    7.5245  -52.4344   -9.9697  -22.4998  -58.1245
  621.1735
  -78.5593    4.8358 -176.0962    4.0066  -21.4875  -85.4076    1.1502    4.1614   25.9445  -12.3159
  -18.3098   -2.1962  -14.0890   10.5374   25.4642  -65.5173  -14.9498  105.0506   13.7604  115.4847
  -29.1446   20.4512    8.8133   62.8298   48.1695  -59.6467 -116.5113   85.7928  -31.1837  -90.3294
  -71.6028   26.8043  -20.0104   55.7698  -17.1248   22.1581   24.2066    6.3046   44.4735   18.5283
   54.1413  575.1518
   -0.2023    5.3487   -1.1692    9.7555   22.9545    7.2900   11.8559   -5.6026    5.0424   18.7011
   10.4675    4.8631    6.7538   -7.5928   11.6936   26.7736   -2.2319  -26.1463   13.2383  -33.5740
   -4.5584   10.6785  -20.1944   -4.9089  -20.1198    8.3003   31.0914  -45.5084   26.4392   10.8399
   32.3740    8.9525   -5.6139  -13.5880    2.2553    5.0335    1.0729   -9.6274  -23.8667  -70.0349
 -107.9961   -6.9914  138.2174
  -25.0550   51.3497   22.0769   49.1212   77.6453   18.1762   -4.9285    6.8649  -61.7576   43.1117
   28.9087   24.7386   89.4460  -24.5458   13.9311  140.6261   50.4421  -98.5426   -8.2707 -245.1609
   36.5729  -52.2623  -14.8443  -93.0885  -61.4211   84.4481  183.1452 -176.1857   25.4603   -0.7255
  -10.1497  -15.9311   72.3113  -91.0084   41.6813  -36.7791   12.5489   -2.7167  -18.4554  -19.1201
 -496.8195  -55.0267   98.4862  767.2959
    8.1442  -22.8893  -10.3254    3.5182    7.8678   13.8148   -1.1352    0.1846   -0.8828   -8.0830
   11.7148    7.0662   -6.1880   -3.2084    5.1961  -31.8513    2.4029   34.3259    0.0928   21.0781
  -14.2776    3.4030  -20.7842   14.0113    5.1690  -31.7019  -52.9373   12.3397   54.3187  -29.6279
   49.5005   -2.0583    4.2368  -22.8761  -58.1637   66.2495  -24.3196    2.0601  -26.2472   16.3832
   54.8878 -117.0704   -5.9696 -164.8068  263.1214
   43.3538   -9.5246  -27.7978   -6.2770    1.5931  -20.1883    6.4142   -4.1898  -25.5134  -11.2657
  -20.3467    4.5343    6.0761   12.4887   -5.1761   23.4975   -3.1670   35.2083   17.7484    4.9468
    6.6177  -26.2131   34.9972   -9.4433   35.4647   -1.5193  -26.4445   59.8582  -35.8311    3.5363
  -43.7919    0.8918   22.1443    5.1468    7.9918  -23.2844   32.9572  -11.9856  -11.5767 -309.9760
  110.6336   88.5047  -24.1405  -18.6022  -40.1183  423.6769
  -13.9479   19.1825   -3.2468  -10.5409    3.8552  -15.9181    3.8883   11.1119   16.8035   14.7298
   24.5211   -8.8235    2.9224   -0.7657   11.8562  -21.9576  -12.2070  -10.1371   -1.1776   34.1015
    7.9806   26.6678  -29.1100   20.3449   -9.2226  -21.5575  -23.7385   -6.9763    4.1793   14.8313
   -0.4260  -11.4701    5.3075  -16.7563   29.3313   -1.1756  -33.1568   -3.9572   11.1248   96.9972
  -72.8319   -4.3032   45.2776  -52.4595   13.2461 -135.7177  191.4084
    7.7902   -9.7063   39.3756   11.6735   -4.3737   -3.5130  -14.1126   12.2326   15.9694    8.9575
   21.1774   -0.6426   11.8869  -19.0172   -2.1653    4.2398   17.2840  -18.7443  -12.1789  -22.3398
    2.1604   15.0915  -37.8380   -8.2962  -20.1572   -2.5208   13.2405  -36.8757   22.9197  -15.6591
   30.6682  -19.7485   -0.6595    2.9501   -5.8566   28.3982  -15.4172   12.1159   28.1786   43.4056
  -25.1868 -132.2579   -5.2073   39.1701   27.1601 -113.0107   33.3549  161.7111
   45.1853  -11.4607   44.8117  -22.8030  -11.0110    9.3757    2.3916   -7.8795   -5.0578   10.6396
    3.8535   16.9222   13.0963   -6.4664    4.9467  -10.7372   -1.6396   -7.6823    8.8749   23.9941
  -11.9095   20.2994    6.8297   30.6113    3.4354  -15.1178    1.7638   15.1133   -1.9711  -14.1316
  -10.2724   12.9707    0.5617    3.3402  -20.0178   18.5803   14.2173    3.4136    2.5847  -86.2429
   55.6155  -45.6005   -8.0518  -22.8813    9.8970   -2.1510   -3.1955   38.7307  130.4770
  -40.5849   33.6128  -30.7008   21.6567   18.8391  -16.9572    6.1225   -2.6451    6.3030   -3.3494
   -1.8421   -0.2953    4.8441   -2.5589   34.1505  -14.2223   17.2417   -3.1519  -10.6883  -11.9801
   -0.3964   18.3528  -24.8463   20.8729   -2.9422  -26.2059  -10.3294   28.2553  -57.5527    2.8652
 -120.8235   14.5408   -7.3743   33.5227   66.3405  -23.1785   -3.9028   -5.0687   60.7114   13.5522
 -120.6102   10.7322   -0.2632   21.8135   18.3174   -9.8104   51.3367  -27.6372  -26.1059  252.5925
   36.5259   19.1904   77.2614   -0.7156   27.2142   31.3113  -16.2280   17.1745  -39.8522    9.9603
    6.6558   28.9832   69.8122  -26.7171   -6.3037  133.0877    3.1180 -101.5174    4.2604 -179.0445
   35.8357  -81.9369   44.1287 -104.9245  -40.7350  103.2186  173.4666 -105.4052  -13.2708   55.9303
   -0.5366  -22.0155   77.2919  -72.6947   41.6097  -48.1737   37.3445    0.3294    2.0037  -35.2959
 -156.5578 -504.8006   21.2015  283.0397  -97.9931    0.0555  -58.6537   31.6929   26.1770  -29.3333
  869.0109
  -52.9449   -1.0435    0.0473    0.1260  -14.5291  -29.0765    3.6492    7.2100   26.8720   41.8869
    0.8637    6.8944   29.8909   -2.9306    9.6105  -11.2115   73.1589 -103.0193  -47.0750  -40.1087
  -26.8678  108.1795  -75.2908   56.4237   -3.7263  -12.7786   58.0917  -18.6581  -71.4620   48.2417
  -70.8151   23.7513   41.7890   46.2512   12.6051  -77.4921   48.5756   26.9119   23.3630   -8.6914
    5.4992   40.2206    6.1762   50.4358  -28.1186   -2.2591  -18.8554  -22.6269   31.8966   56.5144
  -26.6533 1466.1255
  -19.0841  -10.4011   -1.4806   -4.3731  -25.6370  -27.5677  -24.4768   26.7877   42.4203   45.8654
   27.4135   19.6281    5.5985    8.3295   11.0625   25.0180   13.4901  -22.4424  -11.3724    2.2563
   -4.9590    5.0929  -43.0827   -4.1677  -15.9937  -23.4516   29.0244  -12.2927  -22.4952   71.8719
   -1.9142   13.8197  -33.9532   -4.9684   23.7962  -45.0064  -28.9465    7.5754  -36.2596   28.5192
  -59.3158  -16.1682   30.1494   64.0126    2.5199  -42.1825   24.1662   -0.7686  -30.0141   14.7243
   34.0169  -46.0619 1883.7290
  -17.0983    9.0687 -114.9666  -66.0468  -18.1508   -5.8180    6.3394    3.7794   -5.7077   34.0132
   24.9271   10.7123    9.7521   -4.2643   18.3809  -16.4842  -51.1766  -15.3734  -17.7103   -6.3282
   26.4271    1.7435   22.8286   16.4171    6.7336   14.4592   -4.1508   41.7809   -6.4440  -23.9756
  -28.0107   14.4826   -6.3597   -2.1269  -26.4318   43.7205    8.8891   23.7083   17.2030   -7.9244
   51.0624    9.7966  -18.5817  -45.3284   16.1539   19.1383  -14.5827   -7.0678   -4.6667   -8.3449
   11.6698 -722.9748  -17.0967 1212.5991
  -26.0948   17.3158    4.7567  -23.4594   -2.9341    6.1297   14.3784   -1.4489   -3.5621   17.3804
    1.9550    4.3726   14.3538    1.5416   12.5406    2.9477  108.9357   -6.0777  -34.9532 -127.0706
   -5.5272   29.1807  -28.2436  -11.2949   -2.9332   29.4353   -5.9164  -66.1504  -42.3969   -0.4667
  -12.6831   -4.4259  -10.0009   36.9016   23.0992  -39.6130   19.4234   22.6884   20.3144    7.6323
  -11.6123    4.5155   -9.9409   42.9497  -48.9017   42.9444    8.5382   -2.0600  -12.5470   21.4701
    0.3600 -233.7741 -184.6506   33.8825  722.2986
  -33.9304   37.2696   63.8898   24.1102  -13.9497  -22.0935  -20.6606   36.4772   42.9083  -13.0993
  -13.0010   11.2906   12.8791   21.9906  -11.9976   49.0628   88.9205   22.8788  -39.7941 -147.1619
  -25.0451    9.5292  -39.6138  -67.9246  -35.3630   95.2253   -7.4733  -60.1379  -42.6978   42.2591
  -38.7457  -11.1095    3.0807   49.6733   43.8144 -108.5825   -4.5864   30.8535   -6.2444   54.5140
  -50.4390  -97.7479  -31.7487   53.1318  -48.2781   77.8333   19.9478   12.2800  -70.3406   41.8685
  120.2186 -194.8859 -677.4976  157.6916 1210.3640 4619.2232
  -12.1886    4.8416  -24.0980    9.2861   -0.4811  -36.4195   -1.5480   11.5998   13.3792   -3.3996
   -7.7509   15.9990   12.1143  -19.1163   20.7122   -8.6230    9.3060  -30.5622   -7.1191   -0.1294
   22.5606    7.6581   -9.3307    9.8741    8.1959  -22.0234   21.2643  -19.9525  -20.9709    2.6725
   16.2225   -3.2376    4.0159   -7.4078   11.2195    0.3812   13.7062    2.6503    8.5447  -10.1812
  -14.3623   -6.6622   17.5016   16.0594   -1.9305  -22.2494    5.5977   24.8182   16.2887   -9.9804
    9.9351    2.5336  236.2289 -179.6058 -314.8858-1220.8123  684.6756
   74.7124   -0.8140  -33.8360  -87.6172   16.9933   34.9951   37.3849  -12.9186 -101.8129    6.2710
  -59.7814  -21.8462   20.9406   94.6203  -27.7111  -31.4992  -91.7615   -0.2777   66.8524  113.3981
   21.8416  -15.6353   79.4597  -35.8362   51.3009   33.0500  -77.8455  -13.8262   65.6976    2.9138
   48.0786  -33.7106  -30.9942    4.0267   55.9412   99.7207  -20.0305  -47.8970  -63.5079    2.3566
    8.5384   78.2420  -27.1417  -66.8852   -5.1246  169.9980   84.5548  -80.6276  -62.0676    8.0132
  -84.4995 -778.2693  -28.9957  414.4570    3.5353 -121.7775   79.2808 2740.4888
   15.3236   16.0412   25.5414  -29.0448  -26.3104  -13.0036   -6.7016    9.5704   13.8709   40.5074
   12.4695   17.4949   10.3004    8.8899   11.6434   19.0889  -45.4369   -1.8587   12.0506   22.9767
   -9.7077   -5.8822   13.8773   -9.9069   -8.7484    9.4281   13.5567   15.4574  -27.4591   51.8568
  -13.2455   11.5306   -8.9110   -2.6271   29.1330  -42.5389  -25.2210   -8.6257  -33.1493  -13.0936
  -25.5266  -18.2246   13.2420   42.8944   -0.1889   16.9916    5.4697  -20.6410    0.2791    8.3966
   33.2994   -4.8600  -76.4386   -0.3671  -53.4085  -37.0338   54.0648  127.8660  358.8604
 -132.1536  -21.3975 -227.7240   20.2315   13.0082  -35.7639   -8.8468   10.6023   22.6530    6.0417
    0.4816   26.9760   14.8014  -21.7416   31.5429   -4.3338    7.9248  -21.4702    9.0054  -28.9871
   29.1271   15.0979   -0.1938   15.7659   -4.6786    2.8462   10.3849  -28.0701   37.6982   -5.5913
   -0.0730   -5.2029   13.4141   -3.5354  -27.1887   41.1715    8.4239   -1.2898   18.0122  101.8244
  -56.3166   -1.5624   12.3861   42.6708   22.4338  -52.6089   16.1120   32.2825   -0.3739   30.0114
   22.8919  400.1953   -6.1594 -586.5911    4.6725   73.6296  -57.6008-1479.1653  -91.0491 2031.2162
    2.7237    9.5170   17.1409   17.2832  -23.6519  -45.3703  -35.1760   27.7654   31.7744   29.5172
   -6.7615  -11.5825  -43.9482   -6.8080    2.5458   -8.7848   51.9362   -0.1078  -35.4437  -33.5357
    8.4526    6.6861  -28.0192    0.9098   -1.3915   -2.4651   -0.9271  -24.8671 -101.0404   60.5659
  -56.5412    8.5196   11.2441   35.5607   77.0957 -106.9042   55.0805    6.9605   14.6005  -23.3152
   28.6101   34.8430  -13.0562   -6.1104  -58.5185   66.5119   -5.6039  -30.9698  -21.8182   34.7300
  -21.6632 -314.3055  240.2253   65.2275  144.0230  235.9095  -15.5169 -132.6595   26.1242  107.3866
 1270.2798
   26.8379   10.8779  -15.8199  -74.6111   16.4834   88.9731   61.3637  -56.1503  -30.6508  -17.4849
   36.6880   19.9140   44.9922   20.7800  -43.7418  -67.1535 -154.3557  -94.4726   81.8579  141.3391
  -11.1005   71.7527   39.1670  104.8513  -12.0965   -2.2655   37.4444   12.2418  141.5682   -1.4583
  155.8724  -27.5428  -92.2428  -13.5450 -109.0866  143.4216  -82.1450   -0.6303  -31.2239   -6.6574
  -47.1412   10.7232   64.2125  -36.6905   75.1384  -48.4379   14.7962   14.4669   -1.6878  -71.6399
  -48.3804  216.8835 -566.2618 -107.2122 -133.4109 -336.5466   15.3704  227.3967   33.8434 -177.0635
-1751.7670 3907.9063
   -1.9850   -3.4673   -9.3552   -8.5885   27.0731   19.8281    2.3967  -20.2859   -8.9529  -25.8406
    7.8306    8.7561    4.8363   -4.8584    2.3857  -18.1607  -18.9223  -41.4743    6.2647   -2.2059
   22.2564   15.9683   12.8769   26.2175   -4.1460    8.4295   27.5671   -0.5446   69.6235  -47.3404
   30.1302   -1.3589   -4.5923   -9.9036  -62.2616   70.3987   -6.7045    2.3137    9.6942  -19.0482
  -12.4196  -13.8502   23.4083   -1.3484   20.3500   10.5744    0.2503    1.6367    0.6185  -19.0275
   13.4533   16.7844 -222.2437 -154.4329   -4.5735  -39.5606   26.9245  102.9870  -35.9474  -89.6157
 -531.0292 1081.4141  644.1660
   35.2556  -23.5597   11.9312  -23.6624    0.5161   49.4293   16.7010  -34.8521   -7.5547  -23.2123
   13.1292   -6.9710    9.2051   -0.3668  -38.7902  -86.2794  -67.1928  -64.0507   60.1225  139.5836
  -14.4006  103.6626   11.2789  131.7154   -8.4388  -24.9588  -11.0877  -58.4841  101.1296  -34.6901
  149.8377  -27.9947  -75.0390   16.3281 -106.1084  136.2436    6.3901   17.0498   16.9262  -28.8472
   32.9269   56.5657   30.4826  -84.2068   50.3341  -32.2572  -11.1731   21.8498   23.0454  -83.8585
 -106.6272   -7.4411  100.5574   69.0751  -93.3412 -160.1750   26.5195   42.9960    7.5684  -57.1650
 -860.0195 1507.0871  407.9179  975.2428
  -26.3596   12.9247   -5.0886  111.2741  -30.4856 -147.7264  -66.3497  104.9446   39.2535   -3.8619
  -54.5525   -5.4193  -32.2914  -20.0241   49.9862   57.1059   41.4455   93.8273  -51.8347  -77.6422
  -24.6277  -71.0021  -28.9627 -107.2638   11.9477   63.2810  -25.5042  -38.5597 -190.7216   60.6925
 -134.4666    6.1873   89.6596    9.4180  188.6059 -211.1477  102.0985    3.3006   30.8622   10.7732
  -13.4671  -63.2718  -54.8952   97.8221 -107.3121   38.3578  -18.0032   17.9450   -6.8203   67.3580
  148.9333  154.9925 -230.0407 -170.1435  111.1178  206.4532  -22.0493 -161.8315  -60.4060   87.2943
 1396.9129-3068.9227 -849.3629-1589.4936 3336.0726
  -22.3336    5.7743  -44.3271   22.7564    1.1820  -37.5565  -28.4481   19.8969   14.3640  -12.5721
    2.5673   -0.1575  -14.4450  -15.1279   38.4200   13.8459   11.1681    9.5034  -14.5706  -50.4233
   22.0359  -35.7019    3.1322  -28.1844   -0.0375   36.3404   16.9391    8.9250  -25.0111  -46.8995
  -59.4904   15.6413   56.1431   -3.4005   19.3158  -14.2742   35.4548    6.4933   13.8710   -1.3978
    8.8244   -4.3290  -21.8237   23.1376   -6.9000   21.1130  -18.7184   -8.5264    9.0455   11.6755
   27.7269   67.3359 -110.4431    2.5076   -2.5307  -22.6953   -5.3229  -34.8910  -27.2498   46.2593
  416.1620 -943.8042 -360.4623 -517.1798 1036.4669  448.3503
 -283.0764  -30.3809 -369.3256   36.7253   16.1469    4.5589   -9.8548  -19.8358   43.3186    8.6007
   73.4164   23.0873  -11.2080  -89.9411   51.5701   -4.0539    3.2571   46.4270   -3.5326  -62.3297
   14.0801   -0.4219  -36.8258   26.8809  -20.7322  -24.9271    4.7527  -55.7850   -4.8793  -13.3395
   35.4220   13.3104  -20.2346  -28.3945  -42.0197  -41.2221   44.8757   35.0036   63.5117   22.0759
  -30.8614  -46.0894   27.2726   72.5244   22.9027 -101.7269  -54.2640   96.3781   -5.7940  -22.7428
   83.3676  -47.8361  -26.6152  185.9986  -20.0739  -22.7640   35.9238-1737.4959 -127.0497 1007.9919
   53.8801 -125.4489    2.1522  -18.9275  166.8862   74.7493 2061.4192
  -30.3131  -19.6661  -17.7393   -2.1255  -13.9134  -15.4088   -2.6014   10.0821   26.6698   17.1172
    6.7857   10.0852   26.9170  -12.1485   17.2301   34.7093    8.7572  -33.2495   -6.3327  -56.4046
   13.0657  -12.9259    7.3400  -23.6241  -12.2525   31.7892   53.9682   -5.9918  -40.1175   21.7604
  -31.1410   11.7097   17.0782  -19.4869   34.0639  -61.9391    5.0848   -4.6822    6.6978  -11.4660
  -84.0917  -21.0556    0.8855   99.3285  -26.6116    6.6840   -2.8488    2.0275   12.4446    9.9524
   69.6526   23.1056   31.7949   32.0202   12.9773   35.5253  -11.8377 -194.9782  -88.4278   78.7401
   -5.1637   -1.3500    0.3298  -18.2973    9.0356    7.2997  192.1177  204.2566
 -241.1264  -23.8358 -411.1989   37.2340    9.4814    9.6015    1.5788   11.2068   -5.5333  -24.7303
  -38.5532  -13.0353   12.3021   22.2434   11.6217   13.3194    2.7902   11.1902  -19.6841  -14.9318
   -9.6494    6.7000   -7.1498  -14.1946   26.6020   22.6556   -4.6421   20.1692  -26.4146   13.3074
  -19.9079    4.5283   33.6158    8.7828   17.0011    1.5085   26.8659   12.6922   16.6377   19.9965
    1.4049   -3.2222   -4.3389  -22.2668   12.4162   33.6581   10.1789  -19.2650  -13.7668   29.5336
   39.1552  216.5509   21.5198  -90.6182   40.4992   22.5452   11.3293  908.4107   80.6626 -921.8503
  -31.2163   91.0310   22.5556    9.6553  -53.9711   -4.9421 -800.9406  -63.9473 1504.9598
   18.0116   -6.1637   -3.4403  -78.1662   10.4449   -3.6256   44.2226  -28.2344  -12.2711   58.8513
   22.8515  -13.5442   20.4649  -22.6619   49.9360    0.8919  -31.5180  -65.6539   22.2298   -5.9597
   45.2348   -7.6287   36.9853   26.5476    4.4292  -17.1329   68.7808   37.0135    5.8044    9.5685
  -15.6800   11.6106   -8.7842  -21.6915   14.3854    9.5777   -9.7941  -30.8055  -18.5882  -63.7799
  -11.0459   80.8070   39.2728   44.8274  -17.3199    2.8476  -15.8914  -44.0726   33.1250   23.7879
  -73.4667   53.4541  -69.8312   16.0198 -394.4876 -943.3266  216.1679    2.7741   10.6434   23.8693
  -43.2919   46.7034    9.0327   31.8258  -65.2539   19.4374   -1.7405   21.3609  -26.3053  437.2342
   32.6666   -7.1427 -100.2646   -9.4558  -36.5680  -48.6648    0.5658   20.4294   40.4386   12.0777
   -5.6913  -24.3695  -17.3023  -21.7865   16.2751  -70.0565 -186.8247  -48.1538   69.3955  189.3103
   33.7576  -16.6697   68.3722  103.5228   26.3522  -50.0120   27.4196   61.6959   -1.3610   76.1180
   84.1776  -19.9862  -67.0593  -48.6753   30.0033   30.3507  -19.9057  -52.3908  -35.1240  -56.3062
  -12.1821  121.5955   29.9681  -49.4050   38.0053  -69.5990  -21.0561  -26.5415   58.5167  -23.4600
 -147.7490  -93.5360 -208.9259  112.6642 -975.9759-3580.8406  930.8226   49.1137    6.0888   68.5754
 -162.1377  235.0161   51.7181  185.6849 -202.2236  -21.3274   33.2905   -2.2706  -14.7886  983.6129
 3804.3728
  -39.2651   -9.5983    8.3677    3.1180    4.9431  -35.4624    7.8624   18.1839   12.5172   -1.6171
  -12.5537    5.9993   26.2771   -2.3796   34.9650   31.2478   18.2692  -49.7996  -14.2120  -59.0448
   12.9597   24.0482   -8.3133   -8.9787  -27.9259   46.6973   51.1544   -6.3281    5.2772    2.9197
  -21.8972    2.8757   17.8542    3.7723    8.4187  -10.9483  -17.3030   -5.5151    3.2269   29.4017
  -28.6096  -51.9260   -5.8208   28.3179  -12.8636    3.1990   20.2951   18.5077  -27.8331   34.5768
   64.7257   65.5794  105.5764   12.0777  239.1773  998.4213 -383.7939    6.3194    5.5487   11.2891
   -3.6194   16.8942   -9.1882  -19.5625   21.3220   -8.6355  -11.7328   13.2842   20.7266 -259.6950
-1072.4822  434.9901
 -198.9577  -22.5786 -335.9006  -27.5191   14.5999   48.8720    9.5468   -8.4255  -14.1634   10.4748
   17.1478   -7.7050   16.5389   -7.3071    3.0258   -9.6176   -3.7426   97.2724    6.2567  -10.2370
  -17.0329  -32.7644   14.5450  -32.5360    8.1295    0.7328  -17.3294   -4.9143   -0.0522   10.4967
    3.2103  -16.3257  -14.7093    7.1704   -4.7513   -9.4419    0.7623    7.9016    4.4584   14.8043
  -51.7449  -15.5268   15.5145    6.9052   19.7252   10.1417    0.5932    7.2348  -22.6081   -2.8298
   54.3075  -38.5415   43.9306   14.0801   34.5318   69.0900   -1.0304   -1.7057    0.0834   15.9914
   21.2254  -20.8683   16.6370  -11.2682   12.0240    5.5114   56.1557   -6.3625   45.7064  -45.2738
  -64.5270   24.8600  468.8805
  -19.9237  -26.1706  -63.9770    0.0281  -23.9382   68.4395  -16.0440   -6.6783  -20.3147   15.7754
    2.0374   -6.2466  -26.6825   26.4746  -68.3338  -21.3830  -58.5902   20.3428   21.4256   68.1820
  -25.3260   14.1449   16.7869   16.5087   -3.0556   23.9423  -16.6566  -12.4235   28.5364  -37.7960
   24.4196    0.9571  -10.0673   15.0532  -35.2146   52.7716    8.3183   13.2770    5.3904    6.1775
   21.7033   21.7996  -10.1494  -38.5090    6.8387   10.1676   12.4656   -6.0442   14.0425  -14.0478
  -40.8616  -26.9973  -18.3401   -5.5652   -4.3720   -9.0084  -17.8701   97.4441    5.5216   -0.7926
  -20.0193   29.9117    8.9717   35.8598  -41.2554   -3.8706  -61.4507   -6.7479    7.4549  -14.8139
   -8.9363   -4.5232   49.7675  166.3541
 -339.2229  -15.3626 -765.5818   56.0411   -4.7414  -34.8573  -30.6545   20.4972   12.6479  -28.2846
    4.2233   24.4955    5.7953  -17.9065   14.0704    7.4748  -12.6076  -20.3001   -2.2431  -44.7712
   12.9531   -0.3946   15.9246   19.7201    0.6462   44.5561  -15.8008   -7.6093   11.0963  -54.8353
    9.7078   -6.9977   21.2815  -17.0822  -28.0430   54.2302   44.5234   23.7906   61.0824   70.6138
  -15.2026    7.7765    2.7456   12.7509   27.3086  -14.9133   -1.5173   19.6883   -5.0398   -7.1849
   73.3972  -16.6233   -6.2560   34.0175   -8.7854  -46.7570   27.7627  -36.1649  -36.3303   70.6170
  -52.3584   32.4218   26.7720   30.9259  -12.8228   26.0239  132.3579    4.4769   73.9652  -14.1398
   38.5874  -11.4884  171.6443   42.4630  963.9537
  -10.6970   18.4894  -28.4811  -26.3762    9.1484  -28.8903    6.4725  -12.0937    1.3465   30.6220
    5.7045   -0.1191    7.5062  -22.5584    8.4367    0.6570   33.0038   39.0625   -2.4966  -24.8668
   -8.9093   -6.3922   -5.6773   -3.8127   19.6170  -19.7662  -34.3789  -59.4896   -2.4720  -15.7123
   18.0081   -0.3076    3.2890  -12.9499  -14.7096    3.3134   30.2743   10.2035   -1.5993  -19.2642
  -10.6509 -115.2409   -8.7904   37.2478    6.2573    3.9553  -12.8333    9.4699   24.8698   -2.5989
   76.0565   18.8547  -27.4451    6.6476   12.8404   -3.7379    1.3195  -21.6349  -12.5225    0.6155
    5.4501  -14.7420   -8.4225  -12.3524   24.9593   21.4775   47.3232    8.9103   18.8039    8.9734
    6.1489  -18.5391 -252.7676    2.6152  123.1572  859.2086
   -9.3743  -25.8121   -5.9874   -4.8273  -42.4548   99.2791   34.3858   -5.8434  -24.1976   31.1231
    1.8043  -13.9888  -22.2150   23.6749  -38.9677   -9.6482  -23.0934   -1.2624    1.4551   12.8970
   -1.0823    4.8133    4.1059    6.4918   17.3750   -7.3597    7.2326   25.4302  -51.3989  -80.9230
  -47.9455   18.1895   21.6535   -4.6666   -3.1963  -25.8537   28.5121    0.4428   16.0775    6.6564
  -12.9431    1.6155   -6.6526   -4.8278  -43.3719  -11.6195  -13.0396   12.6995   -0.9503   -8.0363
   31.2182  -34.6480   27.2976   20.0322   -6.3290  -17.0176   28.4666  -32.6515    3.9090  -27.0658
   10.5885   -2.1797  -20.6591   -1.6785   17.5750   -8.7291   62.0600    4.2762   -8.2545    0.8742
   13.6256    2.5534   14.2738  -92.7260    2.5547   58.7974 1010.3930
  -32.2124   -8.6445  -77.5501    0.2028    7.9778  -28.0526  -10.2440    8.6988    6.5061   -7.1065
   -1.6169    7.9251    9.5223   -8.7817   11.8866   18.2252    8.0960  -17.3008   -6.7952  -13.7535
   13.3104   -1.1547    0.8126    8.6037  -18.6986   19.9965   28.0002  -22.3691   14.7956   -9.9477
   18.6021   -4.7066    2.7963   -7.9580   -2.8296   19.9290   -6.4729    1.9070    4.8891  -14.3127
  -27.3150  -59.8497   10.5562   29.7383    5.3462  -14.4990    4.7216    8.5105    3.5773    3.8354
   21.5144    4.5037   12.8717   22.4539   -7.5571  -14.5673   -1.4156   14.2655   -6.9381    8.8712
    0.7949   30.5531    9.0716   23.3965  -26.2948   -4.5357   -1.9665    5.2422   12.8512   15.1305
   10.7508    8.3117   44.0778   -5.8902 -122.7308   64.4075   -5.9220  735.3673
  -54.9767    9.8410  -27.3640  -15.2310   -8.9343  -17.2003    9.4469    1.8728   -9.2909   33.0525
    8.3322    4.0321    7.7358   -5.1694   13.8709  -36.4100  -13.1440   78.8867   10.2692   27.9810
  -29.0367    9.1103  -10.4227   30.3050   11.5798  -32.1279  -26.3155 -102.2023    4.2098  -26.6556
   20.1467    0.7665    4.9715   -1.7596  -18.7149   22.5552   37.7547   26.7473   20.0261  -32.2351
   46.4812  -70.6083    0.5363  -14.6447   26.5735   -4.9114    1.8572   -8.1109   31.0056   25.9394
   -1.9506   36.0313  -25.2344   17.5646    2.5281  -23.5701    2.1686  -20.0142    7.8355    5.1847
   -7.9074    8.0724   12.9037   21.8978  -19.5668   11.1300   44.4189    7.3054   11.1315   41.2958
   16.5053   -1.3803 -112.9102  -35.5102   54.1004 -219.0862 -100.1778  -21.9376  843.1967
   24.1424  -24.5842   -8.0576   17.5163  -21.2131   23.5871   -9.5543   -8.2711   12.7084  -10.5586
   -3.1142   12.3153   10.1425   -4.1102   12.0824  -21.5509  -18.7611   38.9425    0.9091    7.2758
  -12.0214    2.6836  -10.3238  -12.9297   17.7694   -3.1571  -67.9130    1.4687  -53.4425 -105.9628
  -30.5971   28.0724   18.3934   14.7830   -5.1109  -23.6039   37.2952   20.0764   46.5821   15.3250
  -78.8359   49.0800    3.5871   15.9229    2.9149  -28.0398  -14.4778    1.8798   -3.8526   20.1902
  -22.8235   57.2492    6.6315    6.0787  -17.0510    8.6114  -11.7228 -105.2072  -30.8204   12.3456
    0.8483  -41.7769  -15.0999   -5.3214   94.5276    3.7850   73.8112   17.5045   -6.1296  -11.0681
   29.2573   15.7063  -27.0450  -81.5134   11.1171 -113.8740 -496.3710   12.1396   75.1472 1027.2194
  -49.5883  -31.0874  -89.1874   -9.3354    7.0528    8.0926    3.6412   -2.0700   -1.9097   -5.0964
  -10.1164   24.8527   36.2283   -1.8266   -3.1706   34.4863    6.5729  -29.6237  -13.4937  -40.1485
   -0.7347  -10.4924    4.5834  -13.7716  -23.4667   23.6376   45.0826  -17.9118   34.7515 -103.0868
    4.6114   -5.7117   10.1405  -10.6109  -33.2690   36.2004  -15.7908   -3.1054  -25.8953   31.0866
  -33.2462 -110.7892    7.9303   25.6799   32.0021  -33.1269   12.4953   19.2806   -3.5370    3.5597
   25.5031  -16.0846  -26.5151  -30.7979   24.9170   23.7675    6.2284   25.8250    4.0810    2.7705
  -49.4147   66.5762   -4.9178   28.4186  -28.5641  -39.4399   12.4054   22.3828  -18.5460   11.4840
   26.8341   24.4436   23.6909   11.6694    7.1703   -3.2793  -32.1475 -158.8611   -0.6467  -10.9840
  998.4405
   33.7845  -15.7461    6.7822  -12.0156    8.8799    6.6720   11.4154    7.2319   -7.9430   -5.0960
    1.3379    4.6321   15.9081    8.0651  -12.3508   57.1931   22.6229  -40.0107   -7.3612  -18.8121
  -14.2666   -9.0675   38.1101  -50.5146  -35.0953   70.5444   41.5619  -19.5960   41.4049   -5.9590
   86.5742  -25.5184   -2.8917   -7.6146   -2.9713   46.0254    4.0977    3.5511    9.2057   16.0260
    6.8739  -31.4231   21.7007   -3.2207   18.5204  -19.6219   10.0911   25.7065    2.1334  -21.9840
   10.8936  -11.0566  -43.2611  -39.4995  -41.4335  -99.5302    7.7089  100.6387  -10.4286   16.6277
  -58.0430   70.4546   -3.5454   31.9837  -55.1783  -38.4159 -120.9175   -7.2627   -0.6820   42.8781
   83.6285  -16.0458   11.7489   11.6852   -3.5099  -31.6092  -54.9312   42.9399 -215.9907  -32.3835
  206.8926  423.7262
   -9.7229   17.7424  -19.3430   -1.7608    9.4962    5.1901   13.7454   -8.5052  -17.0320   14.7209
    0.2903  -12.1318   -4.0497   -1.0583  -13.6852   -0.4026   -0.1381    2.2724    3.3736  -30.2042
   -8.0575   -5.0495  -17.4077    0.4300   12.6412   -9.6193  -10.4181    3.0372  -15.2506   -3.4385
  -27.7922   13.2317    4.5961   12.9387    9.2299  -16.3575   12.2323    3.2578   13.1561   -7.1965
   -6.0242    0.8249    9.7051    0.9188    1.6837   -2.1321  -13.7040    3.5965   -3.9077    3.7310
    5.3997   30.8885   -0.4129   -0.4660   22.3212   32.8441   -5.4766  -93.7050   -9.4480   -0.3429
   17.0393  -11.5820    1.2128  -16.4427   21.2254    7.4682   75.7364   12.9119   15.5071  -19.7380
  -31.8697  -10.4154    4.1525   -2.8280   19.5498  -37.7984  -33.1193   45.3668   29.5367  -59.4611
  -38.3166  -26.9876  192.6644
  -19.4205    8.5656   15.9280   17.4674   -8.0808   -0.3231   20.0215   -2.9408    5.9719    0.9973
  -21.9362  -38.4808  -20.0879   -2.1094   25.4606  -27.7958  -17.6584   54.8361   -9.3526    5.5905
   15.4055  -12.1435   12.0192   -5.5793   38.1386  -31.7946  -38.2556   20.5129  -10.8445  -17.4525
  -42.0786   12.8657    9.0722   24.1487  -31.8731   -1.4365   17.0182    8.7178   20.4860  -20.2072
    8.3228   28.0385  -23.2462  -55.7672  -30.2805   -1.4309  -28.3537   -3.5231  -10.6013   -6.6782
   18.0971   -7.4277   -1.3811   29.4764   -0.3754   23.0713    2.8735  -75.3397  -14.5761   14.4802
   37.6867  -75.1375   -8.1196  -33.2535   77.4296   44.7965   74.0431  -12.5237   20.2503   -9.5677
  -20.6018   16.8195    8.4966  -15.5777   10.4502   12.5932   68.4670  -20.9938  117.4367   54.0078
 -410.0256 -294.1297   22.5093  551.4416
   -7.6518  -15.8450  -20.6610   38.2973   -5.3028   -5.7166   -7.5957    4.9994   29.3025  -40.5778
  -14.9864   -5.3933  -22.4332  -11.2900   10.2549  -39.4669    9.1069   48.6383    1.2518   13.0046
  -10.0308   -1.4586   -9.0292    5.4984   34.7155  -19.6842  -52.0209   22.3502  -28.4622  -59.4800
   -4.3220    8.8255  -17.4875   14.6820  -43.9892  -13.9796   23.8271   21.0140    7.9924   29.4057
   -4.3300   59.9835  -36.1802  -61.2727   -7.8875   15.8222  -23.6780    0.1244    4.2199    1.2562
  -12.7115   17.1452    9.8578   -5.1398   18.0239   81.2962   -1.8599 -155.1919  -27.8368    0.9068
   38.2127  -71.2130   -6.7642  -30.9882   86.6237   12.3925  143.8887   -3.8885   -9.2634  -70.6162
  -73.7937    8.9684   56.3266  -11.3832   25.8266   48.9446   20.2283  -11.4978 -253.6456  208.6585
  -87.6638 -119.4592   36.6727  106.1943  492.1437
   -1.8970   18.0096   14.9672  -29.0121   10.9823    2.3186   10.5233    3.9513  -43.9937   38.4422
    8.4961    9.8074   20.3212   20.8680  -30.0961   29.2811   -1.7893  -34.2181   12.9057    5.7286
  -17.5032   -1.1413   10.5458   21.2417  -31.9674   12.0206   53.8714  -29.9264   50.4838   35.2392
   49.8092  -15.2359    2.9978  -15.2261   19.7451   49.2563  -23.8301  -11.6386   -8.8615  -24.3630
   25.1984  -34.2844   40.7338   21.0043   32.3925  -22.4090   20.3077    0.1176   13.3276    4.7407
  -31.5878  -11.3597  -16.5221  -25.4236  -37.0071 -130.6476    7.5063  109.8275   20.6759   14.8745
  -29.3983   54.2067    3.2248   29.4659  -82.0270  -10.2291 -119.1014  -15.2067   -6.2338   84.3030
   94.2662  -28.6985  -53.9233   43.4131    7.9852    8.5471  -75.6230   16.5567  153.1550 -294.9186
   69.4964  128.0317    9.8265 -105.0674 -336.7316  517.0209
  -18.1437   -7.5836    2.0367    8.7919   -7.0095    5.5870    4.1481    9.0664   -2.7619    0.6593
   -1.9824  -13.3843  -14.8130   -6.9496    1.0661  -11.6685    9.1741    3.6730    2.0841  -40.4937
    4.6128   -6.1334  -22.9196   17.6696   15.8828  -12.6411   15.1314    3.5987  -28.5772  -26.4430
  -28.9517    8.9802    4.0284   -3.6157   -6.1245  -26.6730   25.9439    4.3616   19.9984    8.1097
   -0.4473   15.3027  -13.1407  -13.9772  -13.6518    8.6118  -16.4487    6.9459    3.3392   15.7830
   13.6813   49.8727   23.6063    6.8373    1.8512   32.4504    3.6794 -142.1667  -12.6305   -5.8197
   27.0996  -22.7671   -0.1434  -26.7961   41.2726   11.8780  117.0551    3.6747    4.4538  -27.9810
  -51.4995   21.6168   22.2354   -1.3720    8.5028    4.4546   65.4629   -8.0223  -27.7029   22.7470
 -131.9195  -30.5542   10.5285   36.7292  128.8967  -93.2589  223.8596
   21.5886    2.2419    8.8115   -7.8193   -5.2232    7.1222  -14.4758   11.8554  -10.7025    2.8742
    1.2467    4.9008   -4.1485   12.6124  -23.0539   26.8959    1.1483  -42.1170   16.3274    8.2246
   -3.3574  -14.4138   14.4927   13.4765  -17.0083   19.4011   45.9407   14.8063   30.9902   39.7329
   39.1174  -21.8528   -9.7056  -12.0901    3.7673   17.0265   -6.2514  -11.9234  -18.0375   16.7227
   28.9456   31.1516   -1.6668  -23.2696    6.1803   25.3888   10.6974   -5.3352   15.1326   -9.2109
   16.5222  -37.0569    4.8791   -8.5613  -11.6358  -45.5016    7.9583   68.4653    0.7237   13.3250
   11.8042  -37.5422   -5.5964  -27.9418    6.2661    8.5657  -61.6454  -19.0860   23.5539    1.3751
   21.1409  -22.4535   24.4666   48.5167    7.5995  -16.6276  -20.3406  -18.3325 -231.7549 -136.4703
 -160.6471   77.9943    0.6965  -27.0515  -43.4084   78.0442  -40.5155  407.1697
   19.8827   24.0513   12.2417    5.9212   15.4455   -8.0267    9.2054    1.5522  -19.5217   13.4424
    2.9933    3.4666    1.9791    8.2165   -6.2076   12.7127   -7.0501   -5.8184    9.5391    1.1873
   -1.1558   -0.7828    3.2148  -19.0851   -4.4703    4.8545   -4.1773    1.8932   -0.1723   34.4238
  -24.2421   14.1996   15.1655    3.9939   28.2424   -0.5071   -2.3434   -5.3302   10.8722  -14.6505
  -35.3923   15.9934   18.5724   61.3450   11.9068    3.6662   -0.1131   -1.0033  -10.9285   22.1932
    4.1846  -20.7891   24.5366    2.8818  -25.1908  -40.5376   -4.5349   84.1934   25.8745   -2.4097
  -23.5662   49.4471   16.4383   17.1740  -61.2609   -5.9406  -56.9027    3.6233   10.7313   14.6630
   11.4199   -7.3326    7.9000   12.4301  -12.6211  -37.0400  -15.5645  -14.2215  -40.5513 -145.4377
 -113.3544   -4.5238   11.2260   -6.3426  -24.5473   42.1952    2.7279  100.1393  258.2407
   20.2980   10.2884   25.6716    0.3623   14.4982   -1.2063   26.1870    7.3460  -23.6611    7.4385
  -20.9623    0.6942    2.0706   10.1758  -11.3562   39.5777   14.8014  -33.8995   -6.3906  -35.0644
   -1.1419   -5.5633   26.6515  -36.6645  -13.4495   45.0939   46.6328    1.1181    2.6411   53.0513
   21.0845   -1.5348   17.1197   -2.2823   22.7838   10.1965    7.7103   -4.8412   16.2059  -15.8120
    1.7136    2.0024   16.3990   23.7818    1.5480    0.4438   -5.4936    9.2523    4.2292   -4.3522
   38.5370  -24.7248    0.2574   21.6122  -15.3319  -54.1225    6.6219   86.9676   10.1559   -3.1411
  -16.6750   11.9400    7.9533   -1.9995  -37.6751  -12.5853  -88.3981   -2.7316   42.4459   20.4829
   21.4956    0.2462   -0.6677   24.4876    1.0170   13.1939    7.8724   27.2467 -140.7889 -145.3948
 -315.3794   55.4026  -15.8829  -73.7312  -85.7987   87.6389  -30.3717  268.5822  166.6175  481.2872
   47.5035  -31.9480    4.0647    2.7448  -21.2022    8.3416   -1.2659    1.3715    3.8813    3.1901
    2.5915   33.5710    3.9012    5.0909   13.8649   18.0645   11.3438  -38.2654    5.9336  -13.9182
  -17.7422   22.7846  -17.7432  -17.8022   -2.9928    9.5956   -2.9592  -11.4321  -20.1853   13.6147
    8.4851   13.5226   -1.7648   16.7835   12.1156  -23.8939   15.6949   -3.7539    2.5388    1.7785
    8.4116    4.1356   10.3189    9.4188   -2.5366    0.0902   -5.5517   18.0373   15.7053  -14.5579
   52.6213   31.9409   23.8710  -18.6282    6.2117   20.5835    2.4431  -29.6417   17.7464   37.6956
  -10.2927    2.9168  -11.8004   -2.7377    7.6345  -25.1637   11.4096   10.8656   21.0188  -24.1838
  -41.5614    9.0026  -15.5545  -14.9547   25.0300 -248.6976  155.9011  -66.9719   18.4635   18.0146
  -12.7124   50.3714  -13.0188  -23.8155  -10.8071   -1.7122   -6.0722   20.3934   -1.5480   25.0841
  398.2010
  -29.4476   34.4196  -18.8280   -3.0287   34.6872    7.3525    0.6385  -19.6257  -22.7644    3.3997
    9.6375  -27.2207    3.8691   -2.2359  -10.4893   -6.9581  -22.1143   38.5836   13.4676  -10.8578
    9.4109  -28.8741    8.4487  -15.0007    4.7354  -13.4118  -16.6460    2.2260   34.3272   -1.4120
  -18.9595   -4.7897    2.1747   -2.1825   -1.7674   14.8171  -18.5495   -3.0894  -12.6833   -4.4800
  -39.9732  -40.2834   14.7322   28.7584   15.2559   -4.5242    5.5875    6.0121  -21.9691   -3.2851
   -4.5791  -44.0205  -13.2714    0.6414   -0.8104    2.2299   -9.0489   18.3454   -0.1358  -12.5263
    6.7842   18.5282   15.2936   -7.5647  -23.7247   20.5842   15.2626   -3.3388  -12.0989    4.7884
   -0.3690  -20.5176    2.5028   48.8614   23.6014  184.7421 -227.8116   50.1616   -3.3363  -55.6581
    6.8056  -39.5920   22.4128   32.7713   12.0557   -5.9426    9.1372  -20.7414    1.3893  -17.4425
 -241.1041  404.8088
    8.8304   -5.4763  -19.5601  -15.6906   -5.4054    2.6002   -9.5618   -0.9846   12.4852    2.2600
   -0.7230   16.1723    1.7254   -0.4226   12.8115  -10.3822   -3.7480   -5.9533    8.6147   24.3048
   -2.3631   17.2075   -2.1213   13.1937    0.3015   -3.8869   -8.4893    7.0549  -11.9689   20.4385
   -9.4609   15.8120   11.4369    5.0256   10.3709  -18.6726   -4.1531  -11.4004   -9.0461   -3.0167
    8.1157    4.6291    3.2661   -9.6501   -1.7677    8.9656    1.6855   -9.0158    1.6418   -9.8264
   26.8852   -2.8116   25.1511   14.1267    6.5216   24.2360    1.1346   29.8877    7.2582    2.8367
   10.5108  -18.4993    1.7186   -5.2830   11.2539    9.4298  -16.8871    1.5503   22.4498  -21.0900
  -27.6141   12.9905   52.8569  -27.4751    2.2083  -81.0022   49.5147 -109.3379   -1.0659   25.5120
   -5.3577   -9.6588   -7.3567    2.1219   -8.6209  -15.4205   -8.5116   -7.3720   -3.5104   -6.3314
   82.3709  -90.0521  162.5214
    8.9778   13.1345    0.0718   -9.0782   11.4833   15.4802   12.3179   -9.0728  -14.7702   -7.8253
    3.5420  -14.8519   -1.1767    7.5613    0.9912    8.9469   -6.6082    3.5945   12.2456    1.4218
  -12.0201   -7.6039   13.1749  -26.0124    3.1771   -2.2618   -8.9574    1.4824    9.9481    6.4409
   -0.7758   -1.3501    6.7394   10.3071    5.3267    7.2510   11.8478   -2.2400    9.2798   23.0285
   -3.3985   14.6272    6.1204   -2.5688   12.6169   10.0247   -1.5689   -2.7784   -9.5629    6.1869
   19.0649  -19.0897   -8.7909   -9.9061    2.5809   16.7372   -0.2108   31.5510    8.3832   13.5627
  -34.7931   22.3608    3.9699   -1.2094  -28.9293   -2.7762   -1.4732   -2.6485   -7.5233  -15.8191
  -32.1662   -5.8192   54.1273   18.0133   43.6050 -192.2206  -78.0966 -149.2900   -8.0917  -11.9686
   -6.5178   21.5264    5.2209   -3.8957   -4.9446    3.7292  -15.7158   13.6991    9.7785    2.4133
  -15.6591   -4.3775  -36.5720  266.3587
  -12.7087   18.4725   14.0676   -2.0766   19.8615   21.2572   19.0037   -3.1319  -20.1848   19.6826
   -8.6239  -22.5820   -3.4032   11.8462  -20.0455   16.6087  -15.3118    4.3670   -5.7109  -10.2196
    1.9856  -16.8978   15.4525   -4.9368   -0.4066   -0.9701   16.1545    7.4538   13.9689   -5.6377
   -9.3240   -6.5129   -3.2916    5.8157   -9.1193   10.2366   -1.8242   -0.6837    8.7930   22.9312
  -22.0731   31.2996    3.4336  -14.4086    6.1307   -5.5190    6.3262    3.1838  -25.5804   19.2900
  -34.4536  -23.8034  -10.0192  -17.1328    4.3164    8.4957    3.8629  -13.9574   -1.1821   14.7862
  -11.0727    6.4091   14.0337   -7.5113  -17.0936   -2.2995   29.0931   -6.1767  -15.2270   -0.9208
   -6.0344    6.4175   36.5481   33.2304  -16.1068  -86.3655 -115.6377 -116.9621  -23.3038  -36.3658
  -18.9239  -13.0882   18.2923   15.2545    9.0672   11.5650   25.9359   18.5307   -0.7006    6.2271
  -19.4941   30.6641   20.5548  115.2960  245.6883
    6.1120   22.1910   36.5227   -5.6772   21.7605   22.4897    4.4261   -1.9784    2.7710    1.1750
   12.7202  -10.0908    9.0296   -1.9959    3.5349   -6.2070  -26.0380   17.0558    3.2729   16.4965
    1.9082    5.6318    3.4471    1.3463   -1.1040   -5.6156    0.3060   14.5619   21.3460    7.4396
   -8.3225   -5.0995   13.4464   -2.1045  -16.5457   17.3744   -8.7152   -0.6295   -2.6386   23.3924
  -28.5978   26.7876   10.7768   -5.3639   33.0139   -3.9414   14.4352   10.3411  -25.0696    8.3799
  -14.2349    2.5482    0.9275  -13.4303  -17.4440  -10.2297    7.1536  -23.5991    1.7607   31.4248
  -25.1538   40.0849   30.5313    5.3914  -35.4930    6.5224   18.6989  -11.6792   -4.1280  -11.1408
   -0.5206    6.8651   69.8177   15.5873  -55.2472 -162.3085 -107.9614 -312.0916   -2.0727   -2.9392
    1.7435  -13.1428   12.5224   31.4922   14.5319   -5.7391   12.5931    5.2581   -1.9952  -18.7086
  -39.6352   25.2828   -4.3223  186.8014  165.0804  454.9382


      MOLECULAR POINT GROUP   :   C1  


          ALPHA EIGENVALUES  
 -47.62024 -47.24207 -47.18734 -46.75411 -39.66839 -35.40943 -35.28319 -29.60821
 -28.75231 -25.83955 -21.85727 -21.49840 -20.97817 -19.67419 -17.86683 -16.91224
 -16.82205 -16.75941 -16.52827 -16.42243 -16.33181 -16.27281 -15.93596 -15.27635
 -15.18198 -15.02897 -14.78955 -14.44187 -14.20185 -14.06379 -13.86361 -13.80391
 -13.44139 -13.15818 -12.99608 -12.38954 -12.34336 -12.12057 -11.96318 -11.75522
 -11.23067 -10.96157 -10.67968 -10.07732  -9.77534  -9.42226  -8.99838  -0.49564
  -0.43456  -0.15156   0.38792   0.57630   0.71791   0.78884   0.81951   0.83372
   0.90491   0.92430   0.94266   0.98561   1.01590   1.10706   1.13202   1.20954
   1.36065   1.62779   1.75713   2.46606   2.67249   2.75031   2.94178   3.12998
   3.19392   3.32007   3.49528   3.73478   4.73528   4.81272   5.18494   5.27260
   5.42119   5.61842   5.64548   6.41424  48.75799  49.11689  54.19655  96.08751
  97.61043  98.39248  98.85586  99.06010  99.43549  99.95919 100.19571 100.85689
 102.51349 102.65457 103.03371 103.32254 103.44534 103.95198 104.08281 104.41808
 104.79797 105.85873 106.74134


           BETA EIGENVALUES 
 -47.54328 -47.18626 -47.11820 -46.73850 -39.60187 -35.37676 -35.25072 -29.17649
 -28.73284 -25.46341 -21.74215 -21.39135 -20.94762 -19.38546 -17.78032 -16.86673
 -16.76543 -16.70763 -16.48213 -16.37612 -16.27277 -16.21395 -15.89960 -15.18759
 -15.06114 -14.95833 -14.56844 -14.41146 -14.16172 -13.99834 -13.76663 -13.47837
 -13.34689 -13.12570 -12.70574 -11.63059 -11.21904 -11.08682 -10.51120 -10.29699
  -9.71156  -8.96714  -3.05325  -2.58769  -2.42061  -2.03071  -1.97892  -0.30838
  -0.19911   0.13678   0.48723   0.68773   0.76438   0.83627   0.87263   0.94449
   0.98097   0.98347   1.02753   1.06657   1.07762   1.14364   1.18822   1.33792
   1.39472   1.74289   1.85077   2.58760   2.70932   2.80657   2.99588   3.21292
   3.24741   3.43434   3.74714   3.84136   4.78860   4.84457   5.19114   5.28295
   5.42473   5.63458   5.65088   6.41717  50.23189  50.67191  55.26870  96.10088
  97.63486  98.41053  98.87412  99.08147  99.49512  99.98149 100.21816 100.88039
 102.55014 102.67208 103.05254 103.37606 103.49282 103.97162 104.10028 104.43936
 104.82245 105.87890 106.74947


              NET ATOMIC CHARGES AND DIPOLE CONTRIBUTIONS

  ATOM NO.   TYPE          CHARGE      No. of ELECS.   s-Pop       p-Pop       d-Pop       
    1         Mn           0.157333        6.8427     1.10751     0.25217     5.48298
    2          P          -0.548212        5.5482     1.78516     3.72841     0.03464
    3          H           0.206970        0.7930     0.79303
    4          H           0.217564        0.7824     0.78244
    5          H           0.223736        0.7763     0.77626
    6          P          -0.550156        5.5502     1.78680     3.72713     0.03623
    7          H           0.212920        0.7871     0.78708
    8          H           0.207989        0.7920     0.79201
    9          H           0.214613        0.7854     0.78539
   10          P          -0.548152        5.5482     1.79698     3.71664     0.03453
   11          H           0.213572        0.7864     0.78643
   12          H           0.195079        0.8049     0.80492
   13          H           0.195488        0.8045     0.80451
   14          P          -0.571856        5.5719     1.79543     3.72291     0.05351
   15          H           0.202672        0.7973     0.79733
   16          H           0.134836        0.8652     0.86516
   17          H           0.204588        0.7954     0.79541
   18          C          -0.348504        4.3485     0.96214     3.38636
   19          C           0.202830        3.7972     1.08425     2.71292
   20          C           0.352538        3.6475     1.11868     2.52878
   21          C           0.192036        3.8080     1.08430     2.72367
   22          N          -0.290991        5.2910     1.83424     3.45675
   23          N          -0.232859        5.2329     1.69342     3.53944
   24          N          -0.296816        5.2968     1.83326     3.46355
   25          S          -0.036047        6.0360     1.86982     4.09208     0.07415
   26          C          -0.254798        4.2548     1.08169     3.17311
   27          C          -0.433338        4.4333     1.05066     3.38268
   28          H           0.156390        0.8436     0.84361
   29          H           0.157133        0.8429     0.84287
   30          H           0.143199        0.8568     0.85680
   31          H           0.153527        0.8465     0.84647
   32          H           0.166716        0.8333     0.83328
 DIPOLE           X         Y         Z       TOTAL
 POINT-CHG.    -0.897    -1.264     6.082     6.276
 HYBRID        -0.772    -0.553    -1.003     1.382
 SUM           -1.669    -1.817     5.079     5.647


          ATOMIC ORBITAL ELECTRON POPULATIONS

     Atom    s        px        py        pz      x^2-y^2     xz        z^2       yz        xy
    1 Mn   1.10751   0.06176   0.03800   0.15241   1.03543   1.07425   1.05798   1.28147   1.03385
    2  P   1.78516   1.09632   1.50685   1.12525   0.00747   0.00934   0.00361   0.00951   0.00471
    3  H   0.79303
    4  H   0.78244
    5  H   0.77626
    6  P   1.78680   1.49076   1.08960   1.14677   0.00922   0.01190   0.00212   0.00997   0.00303
    7  H   0.78708
    8  H   0.79201
    9  H   0.78539
   10  P   1.79698   1.08566   1.44552   1.18546   0.01086   0.00744   0.00492   0.00743   0.00387
   11  H   0.78643
   12  H   0.80492
   13  H   0.80451
   14  P   1.79543   1.29235   1.30763   1.12293   0.01878   0.00580   0.01215   0.00726   0.00952
   15  H   0.79733
   16  H   0.86516
   17  H   0.79541
   18  C   0.96214   1.29857   0.96154   1.12625
   19  C   1.08425   0.91071   0.89393   0.90829
   20  C   1.11868   0.77716   0.90416   0.84746
   21  C   1.08430   0.90865   0.90100   0.91401
   22  N   1.83424   1.15436   1.17506   1.12733
   23  N   1.69342   1.15326   1.11781   1.26836
   24  N   1.83326   1.13597   1.19920   1.12838
   25  S   1.86982   1.28115   1.59574   1.21518   0.00737   0.03294   0.01848   0.00987   0.00548
   26  C   1.08169   1.07610   1.03793   1.05907
   27  C   1.05066   1.17270   1.03076   1.17922
   28  H   0.84361
   29  H   0.84287
   30  H   0.85680
   31  H   0.84647
   32  H   0.83328


                    (SZ)    =    2.500000
                    (S**2)  =    8.770820


          ATOMIC ORBITAL SPIN POPULATIONS

    Atom   Total    s     px     py     pz   x^2-y^2  xz     z^2    yz     xy
         Atomic
    1 Mn  4.4105  0.168  0.001  0.000  0.002  0.952  0.794  0.840  0.699  0.955
    2  P  0.0553  0.006  0.001  0.043  0.004  0.000  0.000  0.000  0.000  0.000
    3  H  0.0022  0.002
    4  H  0.0087  0.009
    5  H  0.0036  0.004
    6  P  0.0479  0.005  0.037  0.000  0.005  0.000  0.000  0.000  0.000  0.000
    7  H  0.0053  0.005
    8  H  0.0022  0.002
    9  H  0.0044  0.004
   10  P  0.0306  0.004  0.001  0.019  0.006  0.000  0.000  0.000  0.000  0.000
   11  H  0.0038  0.004
   12  H  0.0066  0.007
   13  H  0.0016  0.002
   14  P  0.0041  0.001  0.002  0.001 -0.000  0.000  0.000  0.000  0.000  0.000
   15  H -0.0001 -0.000
   16  H  0.0035  0.004
   17  H  0.0029  0.003
   18  C  0.0675  0.002  0.041  0.002  0.022
   19  C -0.0129 -0.000 -0.007 -0.001 -0.005
   20  C  0.0614  0.005  0.006  0.053 -0.003
   21  C -0.0129 -0.000 -0.006 -0.001 -0.005
   22  N  0.0202  0.000  0.010  0.002  0.008
   23  N -0.0592  0.005 -0.015 -0.030 -0.020
   24  N  0.0204  0.000  0.011  0.001  0.008
   25  S  0.2907  0.009  0.006  0.293 -0.029  0.002  0.004  0.004 -0.000  0.001
   26  C  0.0244  0.003  0.011  0.001  0.009
   27  C  0.0049  0.001  0.001  0.002  0.000
   28  H  0.0009  0.001
   29  H  0.0000  0.000
   30  H -0.0002 -0.000
   31  H  0.0029  0.003
   32  H -0.0012 -0.001

 **********************
 *                    *
 * JOB ENDED NORMALLY *
 *                    *
 **********************



 TOTAL JOB TIME:            19.77 SECONDS

 == MOPAC DONE ==
