 *******************************************************************************
 ** Site#: 26130        For non-commercial use only     Version 16.299L 64BITS**
 *******************************************************************************
 ** Cite this program as: MOPAC2016, Version: 16.299L, James J. P. Stewart,   **
 ** Stewart Computational Chemistry, web: HTTP://OpenMOPAC.net. Days left: 350**
 *******************************************************************************
 **                                                                           **
 **                                MOPAC2016                                  **
 **                                                                           **
 *******************************************************************************

                              PM7 CALCULATION RESULTS


 *******************************************************************************
 *  CALCULATION DONE:                                Thu Nov 10 16:01:22 2016  *
 *  PM7        - The PM7 Hamiltonian to be used
 *  TRIPLET    - SPIN STATE DEFINED AS A TRIPLET
 *  UHF        - UNRESTRICTED HARTREE-FOCK CALCULATION
 *  XYZ        - CARTESIAN COORDINATE SYSTEM TO BE USED
 *  EF         - USE EF ROUTINE FOR MINIMUM SEARCH
 *  T=         - A TIME OF 172800.0 SECONDS REQUESTED
 *  DUMP=N     - RESTART FILE WRITTEN EVERY  7200.000 SECONDS
 *  HESSIAN    - WRITE OUT HESSIAN FROM GEOMERY OPTIMIZATION
 *******************************************************************************
 EF PM7 XYZ HESSIAN TRIPLET UHF
 1008_M_2_3

   ATOM   CHEMICAL          X               Y               Z
  NUMBER   SYMBOL      (ANGSTROMS)     (ANGSTROMS)     (ANGSTROMS)
 
     1      Mn          0.00000000  *   0.00000000  *   0.00000000  *
     2       O          0.00000000  *   2.10000000  *   0.00000000  *
     3       C          0.94404500  *   2.87370900  *  -0.00191700  *
     4       C          0.71331200  *   4.36500700  *  -0.00601400  *
     5       C          2.34444400  *   2.41015100  *   0.00016700  *
     6       C          2.82066600  *   0.99796700  *   0.00158900  *
     7       O          2.10000100  *  -0.00000100  *   0.00000000  *
     8       C          4.31142400  *   0.79936200  *   0.00459200  *
     9       H         -0.36411600  *   4.56317000  *  -0.00806400  *
    10       H          1.14434800  *   4.81192400  *  -0.90540200  *
    11       H          1.14186100  *   4.81651400  *   0.89226800  *
    12       H          4.85006000  *   1.74864000  *   0.00760400  *
    13       H          4.59065100  *   0.24097000  *  -0.89189300  *
    14       H          4.58667600  *   0.23774200  *   0.90029500  *
    15       H          3.09858300  *   3.18418200  *   0.00091400  *
    16       O          0.00000000  *  -2.10000000  *   0.00000000  *
    17       C         -0.94499800  *  -2.87417200  *  -0.00160600  *
    18       C         -0.71516200  *  -4.36359700  *  -0.00600600  *
    19       C         -2.34577200  *  -2.40705400  *   0.00066500  *
    20       C         -2.81805000  *  -0.99876200  *   0.00186000  *
    21       O         -2.10000100  *   0.00000100  *   0.00000000  *
    22       C         -4.31143900  *  -0.79963700  *   0.00506000  *
    23       H          0.36442800  *  -4.56261100  *  -0.00816100  *
    24       H         -1.14537900  *  -4.81015300  *  -0.90527100  *
    25       H         -1.14282500  *  -4.81496900  *   0.89200900  *
    26       H         -4.85152100  *  -1.74973800  *   0.00842900  *
    27       H         -4.59363100  *  -0.24113200  *  -0.89221200  *
    28       H         -4.58946700  *  -0.23729400  *   0.90124100  *
    29       H         -3.09922800  *  -3.18131000  *   0.00143900  *
    30      Cl          0.00000000  *   0.00000000  *  -2.38000000  *
    31       C          0.00000000  *   0.00000000  *   2.05000000  *
    32       O          0.00000000  *   0.00000000  *   3.18805500  *
 


          CARTESIAN COORDINATES 

    NO.       ATOM         X         Y         Z

     1        Mn        0.0000    0.0000    0.0000
     2         O        0.0000    2.1000    0.0000
     3         C        0.9440    2.8737   -0.0019
     4         C        0.7133    4.3650   -0.0060
     5         C        2.3444    2.4102    0.0002
     6         C        2.8207    0.9980    0.0016
     7         O        2.1000   -0.0000    0.0000
     8         C        4.3114    0.7994    0.0046
     9         H       -0.3641    4.5632   -0.0081
    10         H        1.1443    4.8119   -0.9054
    11         H        1.1419    4.8165    0.8923
    12         H        4.8501    1.7486    0.0076
    13         H        4.5907    0.2410   -0.8919
    14         H        4.5867    0.2377    0.9003
    15         H        3.0986    3.1842    0.0009
    16         O        0.0000   -2.1000    0.0000
    17         C       -0.9450   -2.8742   -0.0016
    18         C       -0.7152   -4.3636   -0.0060
    19         C       -2.3458   -2.4071    0.0007
    20         C       -2.8180   -0.9988    0.0019
    21         O       -2.1000    0.0000    0.0000
    22         C       -4.3114   -0.7996    0.0051
    23         H        0.3644   -4.5626   -0.0082
    24         H       -1.1454   -4.8102   -0.9053
    25         H       -1.1428   -4.8150    0.8920
    26         H       -4.8515   -1.7497    0.0084
    27         H       -4.5936   -0.2411   -0.8922
    28         H       -4.5895   -0.2373    0.9012
    29         H       -3.0992   -3.1813    0.0014
    30        Cl        0.0000    0.0000   -2.3800
    31         C        0.0000    0.0000    2.0500
    32         O        0.0000    0.0000    3.1881

 General Reference for PM7:
 "Optimization of Parameters for Semiempirical Methods VI: More Modifications to the 
 NDDO Approximations and Re-optimization of Parameters", J. J. P. Stewart, J. Mol. Mod., 1:32, 19 (2013)
 http://www.springerlink.com/openurl.asp?genre=article&id=doi:10.1007/s00894-012-1667-x

           Empirical Formula: C11 H14 O5 Mn Cl  =    32 atoms



      MOLECULAR POINT GROUP   :   C2  


 TRIPLET STATE CALCULATION


          UHF CALCULATION, NO. OF ALPHA ELECTRONS =   52
                           NO. OF BETA  ELECTRONS =   50

          Geometry optimization using EF

          DIAGONAL MATRIX USED AS START HESSIAN

 CYCLE:     1 TIME:   0.652 TIME LEFT:  2.00D  GRAD.:   281.716 HEAT: -134.8644
 CYCLE:     2 TIME:   0.062 TIME LEFT:  2.00D  GRAD.:   272.110 HEAT: -175.7333
 CYCLE:     3 TIME:   0.070 TIME LEFT:  2.00D  GRAD.:   210.166 HEAT: -193.2718
 CYCLE:     4 TIME:   0.074 TIME LEFT:  2.00D  GRAD.:   141.038 HEAT: -202.0767
 CYCLE:     5 TIME:   0.031 TIME LEFT:  2.00D  GRAD.:   124.451 HEAT: -208.3245
 CYCLE:     6 TIME:   0.031 TIME LEFT:  2.00D  GRAD.:   135.130 HEAT: -212.6326
 CYCLE:     7 TIME:   0.031 TIME LEFT:  2.00D  GRAD.:    75.149 HEAT: -218.5934
 CYCLE:     8 TIME:   0.074 TIME LEFT:  2.00D  GRAD.:    89.563 HEAT: -220.8569
 CYCLE:     9 TIME:   0.039 TIME LEFT:  2.00D  GRAD.:    60.892 HEAT: -224.3474
 CYCLE:    10 TIME:   0.066 TIME LEFT:  2.00D  GRAD.:   101.493 HEAT: -224.8655
 CYCLE:    11 TIME:   0.031 TIME LEFT:  2.00D  GRAD.:    61.497 HEAT: -228.2341
 CYCLE:    12 TIME:   0.055 TIME LEFT:  2.00D  GRAD.:    69.710 HEAT: -229.0818
 CYCLE:    13 TIME:   0.031 TIME LEFT:  2.00D  GRAD.:    40.536 HEAT: -231.1010
 CYCLE:    14 TIME:   0.055 TIME LEFT:  2.00D  GRAD.:    70.315 HEAT: -231.4486
 CYCLE:    15 TIME:   0.031 TIME LEFT:  2.00D  GRAD.:    35.033 HEAT: -233.5084
 CYCLE:    16 TIME:   0.086 TIME LEFT:  2.00D  GRAD.:    40.082 HEAT: -233.8820
 CYCLE:    17 TIME:   0.027 TIME LEFT:  2.00D  GRAD.:    20.761 HEAT: -234.6855
 CYCLE:    18 TIME:   0.031 TIME LEFT:  2.00D  GRAD.:    40.783 HEAT: -235.4979
 CYCLE:    19 TIME:   0.027 TIME LEFT:  2.00D  GRAD.:    25.262 HEAT: -237.2006
 CYCLE:    20 TIME:   0.027 TIME LEFT:  2.00D  GRAD.:    72.808 HEAT: -237.9624
 CYCLE:    21 TIME:   0.027 TIME LEFT:  2.00D  GRAD.:    21.874 HEAT: -241.2549
 CYCLE:    22 TIME:   0.141 TIME LEFT:  2.00D  GRAD.:    19.586 HEAT: -241.3952
 CYCLE:    23 TIME:   0.027 TIME LEFT:  2.00D  GRAD.:    15.403 HEAT: -241.5935
 CYCLE:    24 TIME:   0.027 TIME LEFT:  2.00D  GRAD.:    19.282 HEAT: -241.7821
 CYCLE:    25 TIME:   0.039 TIME LEFT:  2.00D  GRAD.:    18.515 HEAT: -242.1015
 CYCLE:    26 TIME:   0.039 TIME LEFT:  2.00D  GRAD.:    29.975 HEAT: -242.3212
 CYCLE:    27 TIME:   0.043 TIME LEFT:  2.00D  GRAD.:    20.655 HEAT: -242.8232
 CYCLE:    28 TIME:   0.113 TIME LEFT:  2.00D  GRAD.:    15.701 HEAT: -242.9580
 CYCLE:    29 TIME:   0.039 TIME LEFT:  2.00D  GRAD.:    11.666 HEAT: -243.1099
 CYCLE:    30 TIME:   0.039 TIME LEFT:  2.00D  GRAD.:    12.625 HEAT: -243.2680
 CYCLE:    31 TIME:   0.039 TIME LEFT:  2.00D  GRAD.:    10.029 HEAT: -243.5257
 CYCLE:    32 TIME:   0.043 TIME LEFT:  2.00D  GRAD.:    19.825 HEAT: -243.8565
 CYCLE:    33 TIME:   0.039 TIME LEFT:  2.00D  GRAD.:    20.168 HEAT: -244.3443
 CYCLE:    34 TIME:   0.039 TIME LEFT:  2.00D  GRAD.:    32.317 HEAT: -244.5706
 CYCLE:    35 TIME:   0.078 TIME LEFT:  2.00D  GRAD.:    32.874 HEAT: -244.7165
 CYCLE:    36 TIME:   0.043 TIME LEFT:  2.00D  GRAD.:    27.042 HEAT: -245.0007
 CYCLE:    37 TIME:   0.105 TIME LEFT:  2.00D  GRAD.:    12.485 HEAT: -245.2511
 CYCLE:    38 TIME:   0.074 TIME LEFT:  2.00D  GRAD.:     9.938 HEAT: -245.3135
 CYCLE:    39 TIME:   0.039 TIME LEFT:  2.00D  GRAD.:     6.298 HEAT: -245.3857
 CYCLE:    40 TIME:   0.039 TIME LEFT:  2.00D  GRAD.:    14.394 HEAT: -245.4670
 CYCLE:    41 TIME:   0.039 TIME LEFT:  2.00D  GRAD.:    11.640 HEAT: -245.6474
 CYCLE:    42 TIME:   0.039 TIME LEFT:  2.00D  GRAD.:    16.802 HEAT: -245.8346
 CYCLE:    43 TIME:   0.043 TIME LEFT:  2.00D  GRAD.:    11.232 HEAT: -246.2054
 CYCLE:    44 TIME:   0.039 TIME LEFT:  2.00D  GRAD.:    23.413 HEAT: -246.6981
 CYCLE:    45 TIME:   0.039 TIME LEFT:  2.00D  GRAD.:    24.332 HEAT: -247.5307
 CYCLE:    46 TIME:   0.043 TIME LEFT:  2.00D  GRAD.:    37.812 HEAT: -248.2190
 CYCLE:    47 TIME:   0.043 TIME LEFT:  2.00D  GRAD.:    54.760 HEAT: -248.4765
 CYCLE:    48 TIME:   0.039 TIME LEFT:  2.00D  GRAD.:    46.677 HEAT: -249.2548
 CYCLE:    49 TIME:   0.117 TIME LEFT:  2.00D  GRAD.:    47.527 HEAT: -249.6272
 CYCLE:    50 TIME:   0.047 TIME LEFT:  2.00D  GRAD.:    39.849 HEAT: -249.8361
 CYCLE:    51 TIME:   0.039 TIME LEFT:  2.00D  GRAD.:    38.191 HEAT: -249.9697
 CYCLE:    52 TIME:   0.043 TIME LEFT:  2.00D  GRAD.:    41.180 HEAT: -250.0317
 CYCLE:    53 TIME:   0.035 TIME LEFT:  2.00D  GRAD.:    30.420 HEAT: -250.2972
 CYCLE:    54 TIME:   0.039 TIME LEFT:  2.00D  GRAD.:    30.920 HEAT: -250.5452
 CYCLE:    55 TIME:   0.043 TIME LEFT:  2.00D  GRAD.:    17.726 HEAT: -250.8065
 CYCLE:    56 TIME:   0.039 TIME LEFT:  2.00D  GRAD.:    26.528 HEAT: -250.8175
 CYCLE:    57 TIME:   0.039 TIME LEFT:  2.00D  GRAD.:    29.087 HEAT: -250.9532
 CYCLE:    58 TIME:   0.035 TIME LEFT:  2.00D  GRAD.:    28.293 HEAT: -251.0256
 CYCLE:    59 TIME:   0.031 TIME LEFT:  2.00D  GRAD.:    24.702 HEAT: -251.1596
 CYCLE:    60 TIME:   0.086 TIME LEFT:  2.00D  GRAD.:    17.179 HEAT: -251.3063
 CYCLE:    61 TIME:   0.031 TIME LEFT:  2.00D  GRAD.:    15.803 HEAT: -251.3232
 CYCLE:    62 TIME:   0.027 TIME LEFT:  2.00D  GRAD.:     8.162 HEAT: -251.4072
 CYCLE:    63 TIME:   0.082 TIME LEFT:  2.00D  GRAD.:     5.259 HEAT: -251.4225
 CYCLE:    64 TIME:   0.027 TIME LEFT:  2.00D  GRAD.:     3.807 HEAT: -251.4358
 CYCLE:    65 TIME:   0.031 TIME LEFT:  2.00D  GRAD.:     4.617 HEAT: -251.4477
 CYCLE:    66 TIME:   0.027 TIME LEFT:  2.00D  GRAD.:     4.186 HEAT: -251.4658
 CYCLE:    67 TIME:   0.027 TIME LEFT:  2.00D  GRAD.:     5.830 HEAT: -251.4866
 CYCLE:    68 TIME:   0.031 TIME LEFT:  2.00D  GRAD.:     4.801 HEAT: -251.5214
 CYCLE:    69 TIME:   0.027 TIME LEFT:  2.00D  GRAD.:     7.364 HEAT: -251.5693
 CYCLE:    70 TIME:   0.031 TIME LEFT:  2.00D  GRAD.:     5.377 HEAT: -251.6333
 CYCLE:    71 TIME:   0.031 TIME LEFT:  2.00D  GRAD.:     7.233 HEAT: -251.6885
 CYCLE:    72 TIME:   0.031 TIME LEFT:  2.00D  GRAD.:     8.098 HEAT: -251.7228
 CYCLE:    73 TIME:   0.031 TIME LEFT:  2.00D  GRAD.:     7.241 HEAT: -251.7546
 CYCLE:    74 TIME:   0.031 TIME LEFT:  2.00D  GRAD.:     7.654 HEAT: -251.7711
 CYCLE:    75 TIME:   0.031 TIME LEFT:  2.00D  GRAD.:     5.450 HEAT: -251.8074
 CYCLE:    76 TIME:   0.031 TIME LEFT:  2.00D  GRAD.:     4.933 HEAT: -251.8270
 CYCLE:    77 TIME:   0.031 TIME LEFT:  2.00D  GRAD.:     4.892 HEAT: -251.8472
 CYCLE:    78 TIME:   0.031 TIME LEFT:  2.00D  GRAD.:     4.182 HEAT: -251.8656
 CYCLE:    79 TIME:   0.031 TIME LEFT:  2.00D  GRAD.:     5.984 HEAT: -251.8818
 CYCLE:    80 TIME:   0.031 TIME LEFT:  2.00D  GRAD.:     4.031 HEAT: -251.9097
 CYCLE:    81 TIME:   0.027 TIME LEFT:  2.00D  GRAD.:     3.378 HEAT: -251.9269
 CYCLE:    82 TIME:   0.031 TIME LEFT:  2.00D  GRAD.:     3.658 HEAT: -251.9439
 CYCLE:    83 TIME:   0.031 TIME LEFT:  2.00D  GRAD.:     3.645 HEAT: -251.9688
 CYCLE:    84 TIME:   0.031 TIME LEFT:  2.00D  GRAD.:     5.186 HEAT: -252.0114
 CYCLE:    85 TIME:   0.031 TIME LEFT:  2.00D  GRAD.:     4.270 HEAT: -252.0422
 CYCLE:    86 TIME:   0.027 TIME LEFT:  2.00D  GRAD.:     4.304 HEAT: -252.0806
 CYCLE:    87 TIME:   0.031 TIME LEFT:  2.00D  GRAD.:     6.921 HEAT: -252.0939
 CYCLE:    88 TIME:   0.031 TIME LEFT:  2.00D  GRAD.:     5.061 HEAT: -252.1291
 CYCLE:    89 TIME:   0.027 TIME LEFT:  2.00D  GRAD.:     4.277 HEAT: -252.1691
 CYCLE:    90 TIME:   0.035 TIME LEFT:  2.00D  GRAD.:     6.532 HEAT: -252.2155
 CYCLE:    91 TIME:   0.031 TIME LEFT:  2.00D  GRAD.:     6.793 HEAT: -252.2656
 CYCLE:    92 TIME:   0.059 TIME LEFT:  2.00D  GRAD.:     6.211 HEAT: -252.2995
 CYCLE:    93 TIME:   0.031 TIME LEFT:  2.00D  GRAD.:     3.665 HEAT: -252.3239
 CYCLE:    94 TIME:   0.031 TIME LEFT:  2.00D  GRAD.:     2.432 HEAT: -252.3342
 CYCLE:    95 TIME:   0.031 TIME LEFT:  2.00D  GRAD.:     3.328 HEAT: -252.3408
 CYCLE:    96 TIME:   0.027 TIME LEFT:  2.00D  GRAD.:     1.676 HEAT: -252.3468
 CYCLE:    97 TIME:   0.031 TIME LEFT:  2.00D  GRAD.:     0.910 HEAT: -252.3497

     GRADIENT =  0.90950  IS LESS THAN CUTOFF =  1.00000



 -------------------------------------------------------------------------------
 EF PM7 XYZ HESSIAN TRIPLET UHF
 1008_M_2_3



     GEOMETRY OPTIMISED USING EIGENVECTOR FOLLOWING (EF).     
     SCF FIELD WAS ACHIEVED                                   


                              PM7 CALCULATION
                                                       MOPAC2016 (Version: 16.299L)
                                                       Thu Nov 10 16:01:26 2016
                                                       No. of days remaining = 350




          FINAL HEAT OF FORMATION =       -252.34980 KCAL/MOL =   -1055.83154 KJ/MOL


          TOTAL ENERGY            =      -3516.84215 EV
          ELECTRONIC ENERGY       =     -23459.99144 EV  POINT GROUP:     C2  
          CORE-CORE REPULSION     =      19943.14929 EV
          COSMO AREA              =        277.72 SQUARE ANGSTROMS
          COSMO VOLUME            =        314.29 CUBIC ANGSTROMS

          GRADIENT NORM           =          0.90950
          IONIZATION POTENTIAL    =          7.697821 EV
          ALPHA SOMO LUMO (EV)    =         -8.285 -0.111
          BETA  SOMO LUMO (EV)    =         -7.698 -0.874
          NO. OF ALPHA ELECTRONS  =         52
          NO. OF BETA  ELECTRONS  =         50
          MOLECULAR WEIGHT        =        316.6196

          MOLECULAR DIMENSIONS (Angstroms)

            Atom       Atom       Distance
            H    25    H    11     9.54987
            H    26    H    12     8.47188
            O    32   Cl    30     5.26615


          SCF CALCULATIONS        =        123
 
          WALL-CLOCK TIME         =          4.758 SECONDS
          COMPUTATION TIME        =         18.621 SECONDS




   ATOM   CHEMICAL          X               Y               Z
  NUMBER   SYMBOL      (ANGSTROMS)     (ANGSTROMS)     (ANGSTROMS)
 
     1      Mn          0.00014427  *   0.00109184  *   0.53964384  *
     2       O         -0.17902692  *   1.88509760  *   0.55885793  *
     3       C          0.71422810  *   2.52308637  *  -0.11046887  *
     4       C          0.29012578  *   3.92804781  *  -0.42238878  *
     5       C          1.99353694  *   2.07340891  *  -0.46573754  *
     6       C          2.45333778  *   0.80469811  *  -0.12893787  *
     7       O          1.86515694  *  -0.06706631  *   0.63731938  *
     8       C          3.81837301  *   0.33996497  *  -0.53821800  *
     9       H         -0.68163999  *   4.17180179  *   0.03628476  *
    10       H          0.17278439  *   4.04921234  *  -1.51155759  *
    11       H          1.02698230  *   4.66378993  *  -0.07534798  *
    12       H          4.58435627  *   1.10795955  *  -0.37725310  *
    13       H          3.81281901  *   0.08114775  *  -1.61084006  *
    14       H          4.11907561  *  -0.56912112  *   0.00733674  *
    15       H          2.62818611  *   2.72443138  *  -1.05721994  *
    16       O          0.18205007  *  -1.88307718  *   0.55790137  *
    17       C         -0.71223619  *  -2.52196280  *  -0.10878575  *
    18       C         -0.28897632  *  -3.92669363  *  -0.42307808  *
    19       C         -1.99271902  *  -2.07362953  *  -0.46145278  *
    20       C         -2.45367763  *  -0.80504081  *  -0.12602271  *
    21       O         -1.86523480  *   0.06962417  *   0.63656340  *
    22       C         -3.82005172  *  -0.34472421  *  -0.53504742  *
    23       H          0.67825577  *  -4.17536224  *   0.04162069  *
    24       H         -0.16346026  *  -4.04220153  *  -1.51212402  *
    25       H         -1.03031357  *  -4.66184761  *  -0.08636540  *
    26       H         -4.58220812  *  -1.11765525  *  -0.38101488  *
    27       H         -3.81287644  *  -0.08026532  *  -1.60635858  *
    28       H         -4.12707403  *   0.55906783  *   0.01466778  *
    29       H         -2.62707962  *  -2.72576943  *  -1.05148649  *
    30      Cl         -0.00053207  *   0.00122646  *  -1.67927628  *
    31       C         -0.00248931  *   0.00091197  *   2.44536059  *
    32       O         -0.00512008  *   0.00103158  *   3.58687431  *

                             CARTESIAN COORDINATES

   1   Mn        0.000144269     0.001091838     0.539643841
   2    O       -0.179026921     1.885097603     0.558857925
   3    C        0.714228098     2.523086366    -0.110468875
   4    C        0.290125785     3.928047807    -0.422388778
   5    C        1.993536939     2.073408915    -0.465737541
   6    C        2.453337781     0.804698113    -0.128937874
   7    O        1.865156938    -0.067066313     0.637319378
   8    C        3.818373009     0.339964971    -0.538217996
   9    H       -0.681639989     4.171801790     0.036284762
  10    H        0.172784392     4.049212338    -1.511557594
  11    H        1.026982303     4.663789930    -0.075347985
  12    H        4.584356271     1.107959546    -0.377253097
  13    H        3.812819013     0.081147751    -1.610840062
  14    H        4.119075612    -0.569121116     0.007336741
  15    H        2.628186109     2.724431376    -1.057219938
  16    O        0.182050072    -1.883077181     0.557901375
  17    C       -0.712236190    -2.521962801    -0.108785753
  18    C       -0.288976323    -3.926693628    -0.423078083
  19    C       -1.992719020    -2.073629534    -0.461452784
  20    C       -2.453677631    -0.805040813    -0.126022711
  21    O       -1.865234801     0.069624174     0.636563401
  22    C       -3.820051722    -0.344724211    -0.535047422
  23    H        0.678255772    -4.175362242     0.041620688
  24    H       -0.163460256    -4.042201530    -1.512124022
  25    H       -1.030313566    -4.661847610    -0.086365397
  26    H       -4.582208120    -1.117655253    -0.381014883
  27    H       -3.812876435    -0.080265321    -1.606358579
  28    H       -4.127074030     0.559067825     0.014667778
  29    H       -2.627079619    -2.725769431    -1.051486490
  30   Cl       -0.000532073     0.001226456    -1.679276279
  31    C       -0.002489314     0.000911966     2.445360590
  32    O       -0.005120077     0.001031575     3.586874308


           Empirical Formula: C11 H14 O5 Mn Cl  =    32 atoms

    Hessian matrix from geometry optimization
 1026.7418
 -142.4628 1024.4566
   -3.5065   -2.9706 1073.9842
 -163.9268  222.0170    4.8285 1085.0163
   35.4737 -394.3232   26.4780  408.1335 1049.1332
   21.5329  -33.2269  -84.1641 -366.8131 -197.5550  420.6346
   69.2744 -194.7485  -16.8768 -838.6084 -358.1671  288.5586 1788.9692
   10.9422 -139.6813    8.9486 -525.1400 -422.5039  179.2903  160.9469 1336.0483
  -42.5673   92.6169  -23.6656  371.1589  192.9302 -304.6031 -442.7357 -264.2799  710.5021
 -103.1035   -2.8756    1.7867  -31.5810  -54.5382    3.9823 -193.5135   94.8358  -11.2422  759.1447
  -28.3465  -70.1368   17.6045  -78.2717 -113.0462   34.8823   45.7132 -367.6152   25.5568   29.1152
 1012.4678
    8.2979   15.1611  -60.2828   31.9062   62.9230  -55.8244  -22.9552    4.4146 -180.8490  -46.6718
  -66.6505  676.1717
 -102.9546   31.3591   18.0546 -230.5012 -113.4601   80.6653 -599.8889  242.0476   48.0627  -61.1691
   94.5841    1.6423 1416.3555
   15.5925  -76.0368  -24.4063  -80.2209   42.7611    7.2083  111.7229 -167.7411   -0.3950   69.6963
  -34.5643   -2.1788 -160.4163 1448.7800
    8.2537   11.7811  -53.1648   64.9989    9.3621    1.8095  125.5215  -44.8772 -167.6634    7.1287
  -21.1054  -45.6319 -210.3735 -250.8777  514.9735
 -123.7463  -15.3256   -4.7544   24.4846   13.4299   17.7799  -69.1766   93.1407   -4.2402  -41.5013
  -13.0463  -19.0296 -206.8742  242.3261  -59.9371 1252.0191
 -189.3874   49.4852    4.6285   54.3123    1.5452   38.2636  108.4591  -67.6708  -86.3838   44.8623
  -67.2289   -8.5485  132.0991 -711.9937  135.1314   47.0341 1749.2850
  123.4033  -45.4527  -12.5183   13.9356   28.1434  -10.6687  -71.1394   -1.9863   47.9783  -16.1229
   11.4619  -21.0803  -13.8872   64.7532 -181.7148 -269.6320 -439.4986  763.6173
 -421.5313   24.8192   -0.1547    8.3840   21.9907  -20.7408    6.1495  -24.1135   28.8127    8.3730
   71.5173   22.6197   70.8541 -108.0362   15.6235 -345.5338 -229.1275  147.6171 1047.7131
  192.4297 -167.6820   24.8735  -34.0465   32.0685  -39.4617   48.7329   32.5350    2.5285   -0.4746
   51.0565   29.7605  -55.8846 -207.6092   78.5373 -419.3720 -696.3362  360.1343  313.4687  942.2507
  -77.3473   35.6493  -88.7770  -13.7026  -35.0692   33.6782   18.1641   -2.2077    1.3240   16.5640
  -13.8953  -13.7764   18.5300   89.5425  -25.9280  198.3213  283.9093 -350.0465 -170.8574 -382.9506
  470.3603
  -33.4716   37.2373   18.5417   24.8377  -28.9560   -2.7748  -40.4822   31.3607   -2.5670    1.7538
  -49.5614    5.9354  -61.6770   71.4289  -14.6423 -393.8087   37.9915   16.3501 -141.6280  -34.9118
   26.5931  973.8211
   15.3703  -66.2102   -4.1941   15.6466   -5.8762   -6.5875   12.7381  -37.5404    3.4585   72.1890
  -42.0178  -35.8135   77.7022  -55.6832    6.9150   85.0104 -195.7828  -26.8348  -65.4634  -22.2909
   36.4646   28.9932  729.9199
    5.2528   -4.3217  -60.6216   26.1648   34.8251  -19.6958  -24.9006   -3.4126  -21.4473  -14.0783
   19.4703  -23.6518  -14.6487   10.5729  -13.2469   50.6187   19.4485 -205.0537   58.7584  -15.7142
  -53.0551  -42.5885  -24.2708  657.6765
   41.8459   10.8345    8.6962   51.4680   -4.5958   -2.9303   10.6509   75.8321  -13.6670 -389.8899
   59.8028   10.5122   38.2559  -13.0356  -10.5247   -6.2183  -73.0002   25.1666   17.1869    5.4307
  -15.7204    4.1759  -24.7894    6.0088  586.0680
   -4.9741   -7.8793    7.8465    3.3977   22.8681    4.2641   32.5396  -21.7548    1.0933   35.8427
  -67.3181  -16.4438  -34.2502   15.3535    9.0134   13.9168    9.1560   -4.5320   -8.1019   -2.1107
   -2.0983  -18.3174    0.5794  -12.2021  -60.0540  194.0204
   -8.7669    6.8185   -6.6769   -4.5635    5.5199   -4.1935   -2.5292  -22.5467   26.4898   28.8188
  -37.5465  -77.9877    0.4063  -15.9483    0.3251    7.1856   14.6162  -11.1452   -9.3104  -11.3140
   16.6664   -0.4469   15.1036    0.3876  -89.9568    2.9813  206.5639
   -4.9907   19.2623   -4.7888    6.5757   12.9114   -3.9026   23.0064  -11.5285  -14.8460 -116.6924
  -25.4502   90.8489   -7.8255   -0.4353   -9.5109   12.2480   -8.3525   -7.9141   -6.8720   -7.9129
   -1.2451    4.0217    0.5762  -16.7669   55.7512   -8.9623   22.5543  196.2336
   14.1952   26.7961  -13.3677   43.8672   42.6981  -15.5756  -25.7267  -50.7961   40.0541  -49.1786
 -105.4111   85.6652  -20.0135    3.7234  -16.9273   -2.5416   -3.0369   -3.4761  -14.5747  -24.8283
   14.4191   -8.4652   -6.9878  -19.0072  -12.8493    6.2984    5.1114   39.4259  226.1854
   13.1703  -26.4546   24.9990  -44.9630  -45.1895   33.2519   10.1234  101.1502    0.1678  133.1608
  178.8229 -336.7715    7.3873   -2.9727   27.0101  -44.4974  -28.8921   31.2753   36.6618   66.9856
  -18.1817  -43.2768   -3.8052   -3.6151   71.8119    3.4829  -51.1227  -69.7836 -119.9294  596.6184
  -10.1884   13.2331   -5.6955   11.7140   -5.4772   17.7576   35.2832  -41.0177   12.3189 -131.9193
 -167.2192  -39.6325  -12.7992   -7.5322    9.3952   25.8521   26.6521   -6.3102  -29.6991  -37.4844
   -5.6377    9.3347   13.8353   -3.3081  -43.1520  -16.5785   24.8218   -2.9788   18.0559 -116.7589
  318.0563
    4.6569   22.3962    5.3728  -14.4489  -29.3600   36.2090   51.1115  -65.7861  -33.5922 -104.7553
 -228.7507  -79.6103  -11.2909  -11.1907   35.3240   12.7485   17.2074    6.1086  -23.6741  -32.2493
   -0.1173   -6.0586   -2.9432  -11.6004  -26.6078    1.2927   38.7651   -5.8703   20.4695  -93.5485
  172.4999  388.2518
    1.7050   29.3025    2.9443    3.4323  -16.3019   30.3446   50.9274  -29.5270   30.4414  -93.1952
 -190.1421 -198.8114  -19.5713  -10.6839   19.2597   10.1799   19.8744   -0.2333  -29.6947  -13.1432
    3.5183   10.9390    2.4320  -21.4646  -25.5664   17.4348   57.1164  -27.4073   -4.9141  -32.8398
  152.8719  188.8982  384.5421
   20.5628    0.2650   -5.8175  -16.9530    0.7708    1.0404    0.0425  -15.5388    9.1271  -13.8022
    4.8801    6.7987   -1.0186    8.0968    2.9893  -51.5888   25.5412    7.5669   -3.2051    2.6651
   12.1105 -199.2840 -156.0104   -8.3960   -9.3290    1.8375    3.8631    4.0160   -4.3502   -9.0219
    8.3070   -0.0890    6.1211  346.1243
    9.0716  -27.9128   -7.1432  -12.3390   14.1724   -1.9750   -0.8444   -1.4223   10.9187   -2.7511
   18.4733    6.0508    9.9893    1.6700   -6.4603  -16.5112   79.3512    6.3393    9.6017   -0.2522
   12.9149 -203.7666 -267.2996    4.6696  -53.4917   -3.3254   19.1515  -17.6588    9.1626  -34.4184
    5.0953   11.3814   13.4815  184.0201  404.7232
    5.5816    1.3082   -2.7792   14.5498    4.0680    0.7596  -10.3468  -10.2933   -1.9127  -12.0582
   -9.7461  -11.8430   -1.0533    2.9756   -6.6822    7.9136  -11.0996   21.2669    0.5415    5.5503
   -7.9607   -9.3218   -2.1054  -66.4331   10.6319   -6.9223  -13.4829    3.8209   -0.6142   -4.1930
   -1.5873    2.2364   -1.5495    3.1814    7.8068  191.7911
   -0.6304    0.8269   -9.7436  -28.4267  -17.3494    0.4200   12.3196    5.7537   -4.9227   -9.8434
  -15.4631   -6.9605   10.3416  -22.3940   -3.5300  -22.9043   -4.6719   41.9754   26.5547   22.0966
   -1.9107  -64.0144    1.9413   11.8068   14.0561   -8.5852  -11.3276   -3.7763  -10.7709    5.8258
   -0.8236   -0.4658   -7.0428   13.1483    5.3397   -8.6941  179.1739
   -1.2436    7.2358   14.3614    3.1021    2.7030    1.1363   -1.5428   -8.0293   -2.2952   -5.3862
   -3.1808  -10.2852  -30.2436   -8.2649   12.3078   26.5653   30.1401   -8.3642  -14.8181   -4.6881
   16.7978   26.3908 -125.9716 -113.5821  -25.6949   -0.7160   -4.4019   -2.6783   10.8699    5.4976
  -13.8242    4.4635   14.8597    3.1153    5.9325   17.1647  -12.1115  259.8098
   11.4782   36.1238   21.9305   14.6759   13.4168    8.7856    0.1632  -11.8922   11.1973  -25.9036
    1.0305  -25.2294  -37.9092    1.9924   21.2848   38.6190    6.7559   26.4777  -10.6841   24.9950
    9.7361   37.3527 -126.0082 -296.5164   25.2540   11.9330  -14.5549   -3.1864   -9.6805   51.1780
  -19.1984   -4.3536  -18.2490  -27.3500  -10.5358   20.5087  -27.1237  153.0111  489.2416
  -18.2697   -6.6765    4.4403    4.0998   -5.5564   -1.1036   27.3134  -14.9983    7.2408    3.7006
  -28.9594    1.5622    6.0940  -13.1082   10.5935  -28.5559   40.8457  -20.5436    3.9822  -32.3357
   38.2777  -79.4789   61.9817  -67.2954  -27.3330    1.3202   19.7778   -7.3065   -5.0882  -24.5907
   20.9458   22.1166   16.0380   22.8177    1.4842   15.2791   10.5483  -21.4250  -13.3493  219.1182
   10.4266   -0.0221    1.2163  -35.7848   12.2940    6.4390  -13.5858   20.2769  -13.0646   12.4839
   21.5261   -7.3668  -21.5704   14.2695   -9.4991   18.4150  -18.5856  -15.9008   30.1157   51.0854
  -43.6884   43.0975 -195.5710  144.0525  -31.4676    3.4698   -4.8390  -18.1818   -3.3267   13.6310
  -25.8469  -14.5900  -20.4361   -8.1615    2.2506  -11.6435  -12.5626   15.4134   15.6321  -89.5601
  338.2148
    4.6428  -14.5343    5.0391   30.9488   -3.4916    1.4923    7.1593  -25.4677    7.4976    6.5203
  -14.4171   -1.6062   17.5141  -21.6312    5.9055   -4.8612    1.8610   47.9971  -10.0403  -27.7323
   32.4354  -79.6804  146.9504 -224.4369   13.6211   -2.0350    5.1456   -8.8724   -4.8008  -14.9562
   14.3627    6.8938  -12.6865   20.9605   -0.0313    6.4270   -7.7227    9.6817   16.4152   90.9611
 -157.0690  344.6538
   13.9222   30.7508   -4.7617   83.0702   22.6005   -2.1393  -88.4816  -51.3861   28.4109   -5.4395
    3.4373  -24.0231 -237.6001 -227.2913   83.0360   10.3684   -2.2831    7.8495    6.7106   16.9996
   13.4840   -0.0789    2.8579  -14.0100   -2.5451   -1.3724   12.8675    1.2638   15.9402  -23.2545
   11.7003    3.5698   11.9866    1.1221   -0.2638   -1.1469    1.3525    3.9775    2.6780    0.2566
   -1.8745   -1.1252  388.8898
   31.8000    9.2768   -4.8115   29.2887    1.9674   11.5613  -38.2657    4.4946    4.9556   10.6272
   -1.4898  -34.2888 -198.1492 -267.6461   90.6959  -29.6051  -41.5851   37.4204   22.1258   69.7186
   -3.4063   -0.1152  -10.7082  -20.6563    0.3107   -3.5255    9.9923    3.9728   12.0893   -3.9649
    3.0292   -8.1442    8.2999   11.4613    5.1157   -4.0317   -0.7864    3.9799    7.8666    1.7393
    2.4410   -3.2741  188.1072  388.4031
   -7.8154   -7.3323    9.2465   17.1380    7.2034   -7.1797   18.5465   16.5455    1.4358   -5.5709
    4.6601   -1.4499   76.7133   85.5971 -143.0616   12.4098   -3.6740    7.6719   11.0149   39.9387
   10.1688  -16.8424   -9.2783   -6.7927   18.5501    6.8443  -10.2470   -7.7034   -7.8370   38.3901
  -11.3736  -17.8643  -12.3605   -9.7173   -7.9904    4.7753   -1.4412    3.1130   25.9817   -9.1420
    3.4459    5.8307 -138.8544 -139.9609  263.4036
 -178.7310  218.7824  -26.2571  146.1494   18.7461   38.5534  -53.8375  -80.6957   37.0431  -28.0196
  -55.3506   -2.9314   -5.3083  -68.7971   -1.3443   10.1964    6.8545  -38.3283   19.1678  -45.5779
   25.9337  -14.8394  -37.6291  -11.5417  -10.0434  -16.0014   10.3436   11.1314   28.5478   -5.1572
  -11.0271   -9.7013   13.2304   26.0310   20.2837   -2.5842   21.6091    3.5899    1.6534    4.6635
    8.4612  -10.0551   33.1686   29.5757  -10.8137 1025.6377
   36.3528 -393.3962  -27.8482  -19.5830   10.9837   69.0763   55.7777   10.2495  -21.7796  -18.3530
  -26.3297  -28.4997  -22.5007  -37.5494    2.1227    0.3350    7.4844   -5.7517  -40.6648   21.0600
    7.5317  -37.0997   -7.1946  -18.4782   -7.7939   -1.7798   -3.1169    7.5628    9.3108   -2.7209
    5.9029   28.5416   24.4641   24.7729   23.8006   -0.9338   17.5979    5.1652   -2.2937   12.7546
   -1.2570    7.3553   30.4294   27.8177  -21.9816  389.7333 1044.9301
  -18.5171   51.2928  -88.1418  -74.2540  -80.0835   -1.3895   43.0233   56.6906   -7.9857  -19.8968
  -10.8830    7.2150   69.1288  -10.9189    0.0919   22.0051    7.0221   -6.0877  -40.4523  -33.1916
   16.9650  -20.9751   13.4173  -36.0797    9.3888    9.1212   -3.0106    6.5121   16.1242    6.2540
   12.0160   -2.8492    2.8400   10.3387   -3.9854    2.8846   -7.8739    2.6394   19.2251    3.1312
  -14.3512   15.0102  -13.2661  -10.5334   -1.8472  389.2233  231.0475  437.9443
   77.6002 -182.6701   60.8978  -68.8070    5.4003   -3.4475    1.4773   84.1613  -17.0556   49.7156
   71.1893  -17.2153    9.5404   61.1107   -7.2465    4.0907    7.2099   -4.9905   13.2227   23.1428
   30.7245   -1.5028   -6.5147   -8.0893    8.9942   -4.1359   -6.8716   -6.5104   -6.3223   23.1563
  -10.4133  -15.1538  -20.4678   -0.7510   22.6513   13.4569  -15.7087   -0.0646    4.5342  -11.0119
   -6.3421   23.9371   14.9504   12.0966   -2.2893 -757.6675 -320.0258 -295.5355 1783.5987
   25.6122 -138.6430  -28.1555  -65.7188   -6.5805  -32.6987   33.7272   65.6157  -21.2230   21.7480
   15.9211   12.0048  -22.5463   52.6465   15.0754   -4.9303    1.1443   41.1584    1.2222   13.8249
  -29.4078   16.0939   -5.4816   20.3013  -14.7969   11.6152   17.3573  -11.8070   -5.7210  -33.7402
   11.8473   18.3366   -4.0546   20.2836    9.9066   -6.6579  -15.2971    0.1433  -33.4440   12.9982
  -11.6345  -12.2332   -0.1867   -5.2760   10.3573 -510.7948 -439.4520 -218.8344  131.1497 1314.7035
   38.9752 -105.7283  -29.2409  -14.9118   18.0075    4.9872   16.9239   -1.1474  -33.2748    6.0535
   45.7541   18.3144  -23.7200    7.4078    6.9286  -29.7813   19.4674   13.7461   29.0592   17.2294
    5.2736    2.6771    6.6073  -19.4036    8.4960   -4.1813    6.8617   -0.8098   16.2054  -15.7428
  -11.9863  -29.2022  -17.4153    6.8801   19.8394    0.6161   -6.9460   -2.7537  -18.3007   13.5218
  -21.7611   29.7728   -2.3809   -6.7535    2.1379 -330.8283 -175.1513 -298.7240  386.7118  251.5625
  684.4406
  -67.9006  -18.8585   -6.6554  -10.4888    2.5442  -14.5885   25.4201  -27.5545    4.1365   17.4882
   -1.3597   32.6928    0.7990  -25.7742  -30.3845   -2.1977  -23.2775   -4.8995   21.9260  -45.1135
  -15.0365  -85.1267 -103.4739    6.9057   47.2845    4.9638  -45.5904   -0.9861  -30.6153   -2.1388
   53.6268   61.0776   16.7480   16.4128    8.4973    0.0843   14.1594  -18.8694   -8.7657   -3.6234
  -13.1670   -9.3485   10.6912   -6.2164    0.7525  -33.5284  -70.5834  -15.3398 -212.9115   88.9021
    9.5930  864.0798
   16.2704  -58.0110   -0.4893  -12.4229    1.0252  -32.3134   57.6475  -56.6510   -0.3042   -3.4950
  -34.8961   12.3441  -44.1571   -5.7581   -0.3587   28.5929   36.7333  -31.1418  -47.7104  -62.5155
   41.5087    4.8696  -15.1459   -4.7477  -28.2989   -3.5220   44.8464  -33.3056   -7.4629  -61.8091
   91.0471   67.3641   28.6491   -0.7029    6.9523    7.2667    2.8552    1.6827   -5.9422   21.1684
  -16.1308   -0.6824   12.2306   -5.7404  -17.8686  -59.6801 -115.4983  -44.0124   32.5688 -377.5696
   15.0279   52.8031 1015.2988
  -12.3850   -2.3376  -55.1514   13.2159   18.4547    9.6931   10.2739  -20.4112    7.1933   20.3637
   19.6234  103.4064  -38.0793   33.6850   35.7329   22.5371   -1.9060  -29.2625   -2.1095  -17.8290
  -32.7746    3.1375   31.0836  -28.5061  -27.6342   -3.5833   18.1672   11.2696    1.4030  -39.4899
    3.0062  -12.4803    5.1846   -8.0523   -4.1643   -7.0715   -2.3108    6.3484   -4.8079    8.1427
  -18.3155  -21.1992   -3.8942   -3.7824    2.8234  -36.4737  -82.5557  -76.4318   14.5834    5.6658
 -174.7711    2.1441   46.0033  681.2523
  -83.9349   -2.5078  -26.9872  -55.8056  -40.2770   -3.1446   31.1919    3.8815  -14.0252   25.8104
    9.7278  -12.9410    0.4400   32.6012    9.7897   18.9575   52.9554   13.0768   -4.3709  -21.9563
  -24.3918  -25.5289  -48.4859    9.1881  -47.5619   11.6739   16.1922   -0.7520    2.0752  -11.3138
   -4.6631    7.7085    3.4564   19.1554    2.0702  -13.8130   -1.2203   12.2821    2.3982   -0.5333
   13.7876  -16.0702  -23.2499  -29.9957  -15.6843 -213.9590 -118.6967 -101.8186 -663.5324  260.5352
  -50.0880  -69.6243   31.4664   20.4527 1365.4634
    9.0172  -84.7289   -8.1432  -94.4517  -10.9846   26.1089   89.5027   36.8667  -16.2503  -30.9025
   -9.7435  -18.6008   59.4932   24.8408  -13.7631   32.6625   42.5614   27.9677  -31.7146  -64.0836
  -24.1158   -6.7719    1.5941   -6.3900  -11.5608  -10.5837   -0.6038   -0.4920  -14.3392  -14.0499
    6.2415   15.1970    0.3866    3.8553    2.3857   -2.5822   -6.2275    0.2908   -7.1096  -20.1558
  -10.0318    9.4060  -28.5056  -21.8859   -8.2294  -11.2768   91.2735    9.0162  -15.8009 -137.5328
    1.5758   73.9353  -71.3734  -21.1720 -132.3516 1448.1606
  -23.1179  -16.0152  -35.4093  -12.7025   -9.7255    6.6735   -1.6353    9.7182   -7.8000   13.1107
    6.3170   10.9168    0.3812   11.0391  -29.1233  -11.6311  -37.4064   11.1367    4.4568   18.7458
  -15.8632   10.9146    5.5379   35.8670   -7.7818    2.0831    0.4224   -2.8058    0.8051    2.5740
   -5.1650   -1.6002   -2.9445   -6.2444  -10.3809    1.2133    5.6815   -8.7759  -14.1121   -9.1846
   11.3432   -9.5028   -8.7211   -0.5299  -24.3298  -87.8529  -13.7202  -22.7142 -117.6793   69.0613
 -171.9840  -11.4894  -14.9421  -26.6750  239.8219  263.8253  531.5689
 -120.8813    3.6751  -39.1644   -4.8404   10.5162  -25.6410   38.0531   44.0055    4.6871   12.7446
   -6.7244   16.6351   17.3939   24.4822   11.9742   35.4106   15.1108   22.2308    3.9987  -45.4145
  -33.9543  -15.4896  -19.7554   -9.9451  -14.4840   -0.7623   -2.6580    1.4120  -10.6684   -9.1348
   -5.8296   11.7505  -17.5592   29.9546   18.0447   -3.8746   -0.4905    4.9555   -5.1412    6.5909
    3.4335   -7.7158   -8.5300   -0.1279   32.7683   59.7149   23.6338  -19.7811 -146.3444   25.9837
   28.6987  -48.6377   14.4774    1.5758 -162.6467  273.1813   89.4312 1294.6239
 -179.5313   44.2514   52.1315   10.0579   -5.2733  -20.6206   -3.9060   59.3196   10.5053  -16.1793
  -19.0907   -3.8327   66.7994   69.6703   -9.1948  -23.1964 -109.1655   -2.7382   71.8951   14.9771
  -14.1315   30.2090    7.2022  -13.2642   52.2471   -4.4508  -17.0316    5.1360   -9.3997   51.9153
  -16.7870    7.6305    1.8418   16.9884   -1.6008   -1.2166   23.7208   -6.8744   10.9613    9.3767
   13.9032  -13.8985   -3.4848   -2.5950    3.7271   24.9039   -1.6143  -93.7375  242.9337 -133.8107
   89.5316    1.3872   -8.8011   56.8988   21.9185 -834.3898 -129.8056   -7.6744 1853.1050
  -99.5756   46.6760  -17.1141   44.3991   18.5181  -23.0017   -3.2365  -31.8532    9.8524   11.2431
  -25.1473    0.8686  -12.6180   13.3091  -13.5993  -29.9667   -7.4092    5.9732    2.4604   -3.1852
  -19.5590   25.8771  -12.8895  -14.1384  -11.3912   12.5060   -8.1366   -8.1993   -5.0837    7.8977
   14.0885   15.4090    8.0846    7.0210   -0.5029    6.8241   20.2750   -8.1559    0.5213   -6.6235
    7.5626   -5.3437   -1.1278    6.4405   14.2780  -24.6733  -29.6832  -37.4910   59.5028   -2.8934
   59.9767   -4.8344    6.4331  -16.1860   34.2388  -80.7538 -166.7462  252.0202  411.5819  731.4317
 -441.1080   41.3529   15.5467   61.7632  -25.5068   23.5035  -63.2655  -26.9797   -5.2950   -5.8436
  -37.6935    6.5194   18.7423  -45.7263   -1.6467   29.5069   51.7513  -21.6267  -33.9288  -31.0091
   42.5674   19.8172    9.4503    6.9345   -3.3125    8.2473    6.1920    8.9439   21.0954  -44.5933
   26.4295   10.0936   19.9857   11.7727    8.3973   -6.1075   -2.9560   -4.8075  -28.0221   12.6394
  -18.9869    0.7384   18.4505   17.8933  -34.0361   13.9982   25.8756   53.0802  -20.4568   20.7476
  -65.7182    6.7982   -5.5110  -23.3076  106.4275 -108.3414  -15.3069 -372.7408 -209.9500 -124.5348
 1070.0532
  203.3223 -131.4073  -29.1004   -4.5642   11.7199   30.9612   -2.4969  -57.8376  -24.6395  -55.3288
  -38.2522   19.4079  -93.6371  -61.4722    3.9733   -9.2218   -6.7001    6.5069  -45.6068   83.1234
   54.6464  -34.8522   21.5949    1.7180   -5.2276   -2.7584    8.7587    9.2093   37.0662  -73.2059
   44.1748   28.1394   27.4771  -10.4181  -17.4576    6.2752   -9.2833   -2.4329   -9.0090    5.5158
  -19.4206   20.5589   46.6968   44.9485  -35.7500  -49.5580   14.5762   63.4285   46.8898   57.0660
  -36.1583   51.5556   20.7138  -47.9088  -18.8280 -165.9185  -95.4416 -420.0444 -664.8945 -316.7741
  292.1720  897.9834
   74.3596  -17.5871  -74.2552  -44.1739  -48.2907   19.4991    5.0612   43.5595  -17.1427    9.3314
    8.2107  -28.3874   14.7599   -3.5062    5.1442   19.2532   25.7722  -23.6772  -34.8163  -31.5977
   -3.5088    5.7849   10.2917   41.5332   -0.0156   -5.6575    2.9016   -4.7420   -5.4847   16.8802
   -9.9885    0.6252    2.6796  -19.3552  -14.2113   -1.7559   13.0265   -6.3092  -14.9479   -1.6183
    9.6165   -3.6951    7.3500    3.7064    2.5207   34.9061   40.2702   54.1348  -31.0659  -21.6803
  -21.4826   23.2629  -21.0443  -30.3947  -33.4634  -64.6424  -36.4160 -180.6698 -254.0941 -307.4838
  139.3083  332.4346  442.3043
  -52.2740  -10.7834   -3.6080  -24.5409   -7.3811  -13.3906   30.0425  -16.9741   13.6511  -26.1139
   49.5714  -24.0233  -18.5660   21.5237    6.8052  -15.6297   35.8517  -36.2104   10.3871  -42.8563
   29.6509  -24.5746   -6.8138  -33.8562    8.3535   -1.1734   13.1293  -10.8154    4.4660   32.0194
  -21.7691  -11.4166   -0.5579   16.2298   29.3818   -3.9755   -1.8546    1.0425    4.5194   17.0319
    1.1894  -13.4951  -11.1846   -0.3844   -8.1862    2.1943  -15.3274  -15.9010    1.0954   17.4728
   17.2103  -34.3360   -8.1043   11.2859  -63.3751   42.1674   13.6181 -371.8846   82.2442    4.0902
 -144.5985  -70.3129  -37.1373  974.7328
   25.9054 -108.9327   -4.2111  -47.7789    1.9927  -10.5831   -1.7330    5.7671  -31.4908 -105.5761
  -27.1074   -7.2857  -52.9654  -14.9436   -7.2206  -16.4330   17.6914   15.4162   36.5024   36.8401
  -39.2922  -66.4146   24.4611   19.8105   30.9758    0.2641  -26.5744   -2.8540   -8.1236   -1.7258
    5.5995   11.3267   19.1052    2.1034   33.5684    3.9099   18.3283    2.1056  -13.6014   10.8939
    4.7221   14.6624   -8.9333    3.6149    6.5658    4.0026   -5.2046    0.4943  -37.0175  -30.6643
  -11.3733  144.8663  -39.4176   20.7150  127.6730  -56.9889    9.5050   87.3605 -191.8890   27.9788
  -66.0064    1.3277  -21.1500   -6.7062  786.5305
  -15.4697   -3.6212  -65.7295  -17.9923   -7.5137  -35.8061   10.7303   -3.6387    2.9698   18.7745
   10.0469  -70.1242   20.9579   25.4849   19.8552   45.8878   39.7303  -13.5708  -16.6834  -47.7702
   38.8687    2.6925   -1.4882   94.1281   -5.1903   -7.2538   -7.8871   -3.5470  -16.8820   14.5223
    6.7132   18.4541    1.0942    3.6254    4.2029    9.7290   11.2533   -8.4377  -14.8975   -9.7610
   11.4097  -15.6140   -0.7944  -13.6755    7.3774  -45.6871  -43.4054  -16.1556   22.8627   31.6170
  -29.7372   35.7127    8.0241   -8.9852   39.7247  -16.5987  -22.5070  -32.3829    0.3232 -179.3223
  -71.3646    3.8562  -47.9879   29.8225   33.2012  651.6602
    6.8099   11.3120   -1.4129    0.6159   -5.3758   -1.5383  -26.1768    8.5289   -0.2012   20.4562
  -44.0967    8.4325    5.9117   11.3987   11.3158   18.3887   42.1371   -5.4438  -10.1056  -23.7878
   11.8651   30.0978   30.7664    1.5888  -74.9031    3.9208   94.7721  -17.0226   28.0686  -86.9476
   64.9234   -2.9658   14.6946    9.5762   48.6978   -6.8022  -15.0177   41.1989  -10.7270   40.9543
    2.8588   -0.7480   -1.1916  -12.0688  -10.0713   34.1711   -6.3575   -2.9094   14.6266  100.7097
   37.2939 -441.8067   79.2669   18.2183   59.0187  -19.5924   -6.6857   14.8270  -49.2774  -19.1722
   12.2739  -44.4352  -15.3448   12.9200  -65.1625  -14.9595  654.8101
    1.9845  -10.0882   -5.4201  -18.8416   -7.0367    2.5205    9.4335    2.2846    5.6219   21.4737
   16.7978    0.4987    0.8133  -16.3991   -9.8151  -26.2626   -1.3434   -1.3001    9.4681    9.1878
    4.4829    3.4695   -3.2675    1.7381   -3.9837   23.5924    2.1065    7.9404   -1.4157   -2.8927
   16.6247   13.0592    1.4030   -0.6505    2.4787    8.9330    9.8677    1.6193   -2.5034   -2.1285
   -2.0306    6.5651   -0.1752    6.2660   -6.4514    5.6799   23.0136   -5.5645   45.9659  -24.4174
   -0.2176   33.3422  -72.0049    1.6190  -39.4855   19.4351   -6.1314   -0.6836   17.5056   -1.1422
   -2.6718   -1.2990    5.9220  -10.4458   -4.6480    3.2710  -60.4203  192.9180
    2.3995   -9.7504   -8.4804  -20.5879    1.1446   10.0694   19.1504   -9.5423    2.9898   18.5809
  -38.8571   -4.5394    5.3650   -5.3766    5.2718    8.6829   14.3422  -12.6003   -8.7900  -14.4043
   17.8270   -9.9228   23.5761  -10.6269  -87.6240    2.1235    7.2470   30.4445   16.2174  -82.8031
   20.9411   29.9091   34.2328    5.3201   21.3962  -14.0654  -13.9189   -2.3558  -17.0406   22.6033
  -12.6410   13.4850    3.7883    2.2619   -5.2656   19.1450    7.9489    0.1799   -5.3012   24.1492
   26.9977  -53.9019   55.8870  -62.9998   -1.8083   21.6111  -11.0910    9.6940  -34.2643  -13.7168
    1.2315    4.7005    7.6405    7.4846  -24.2348   -3.3991  121.8242   -2.5385  219.8257
  -13.8918    2.8575    6.6613    4.7253   14.2088   -4.7100   -7.6260   -3.2267    5.4023   24.6701
  -29.5978  -14.0982   -0.8746    0.6811   -1.6129   -9.5736    9.4311    6.1822    8.6013   10.8287
   15.7965    0.1301   -1.0912   -8.4102  -35.6065   11.1726  -22.0389   48.3526   12.6136  -32.6731
    2.6906    1.8413   21.2152    0.1970   25.1772   -2.9763   -0.2671    5.7198    5.0080    4.2254
   16.4124   20.7593   -2.0443   -0.1131   -0.6217   11.4915   16.4345    4.3377   26.7097    1.7620
   25.0801 -132.1354  -32.5970 -104.0494   -8.3556   -2.2458    9.1038    3.1312   -5.0353    4.9998
    3.2281   -8.0872    1.9100   13.2298  -12.7953    7.1069   73.3101  -10.2501   -9.9349  197.5059
   -3.4921   28.3704   15.5939   17.4513   10.0697  -18.0790  -14.6080    1.1054  -10.9870  -24.3715
  -30.0277    2.1940   20.8300   -6.0873   -8.6563   -4.8196   -0.2767    8.6066   17.5433   24.2380
   -0.4199    9.6726   -7.4920   -0.2159   15.0813    2.5657  -16.9101    9.7159   32.4944   -6.1835
   -6.9086    4.1184   11.3752    6.8434   -7.7463    4.7046   11.4332   -6.6139   23.3069    0.7205
    8.3742   18.1940   -6.7163   -7.0777   -3.3044   30.1919   37.5535   18.3094  -26.3023  -44.4460
  -36.8983  -51.7684 -120.6434  -81.2028   12.1406   14.0753   18.8281    1.3787   12.2720    8.0061
   -3.4793  -32.9212   -0.2737  -20.0169   -3.1633   -2.6179  -16.6964    9.1074   -9.1620   34.1093
  235.3327
    3.4318   32.3529   15.8333   14.0331    5.1455   -8.0631  -35.5790   34.2474   -7.9581  -56.1037
  -11.0797    2.3408   23.9360   12.6299  -25.6056  -26.7158  -49.4117   50.6537   33.0900   73.9607
    1.6990    5.0231  -38.6879  -16.8297   99.2967    2.4385 -118.4153   29.9844   -0.2065   58.2938
  -60.7758  -12.4446  -54.5002  -12.1267  -38.6660    4.0161    6.9226   -3.9507   35.2257  -53.1791
   38.8464  -11.0686   -7.5537    8.3644    6.9820   21.1374   45.4797   39.1442   23.5647 -122.5564
   -2.9722  -44.7620 -158.4582 -343.5633  -16.4702   11.9621   26.8174   26.4288   31.9546   38.4109
  -15.0962  -30.2278    9.9329    6.2900   35.0576  -18.4235 -151.2840    8.5804 -103.6760   57.9992
  133.4766  672.3187
  -20.5538   22.9700    1.8784  -13.5263   -3.3774   12.8014    6.1582   30.1184   -7.4079   36.3427
   80.9067  -31.2376   -4.1009   -6.5394   14.2840  -15.1391  -24.2578    1.8050   21.8462   51.6254
   -3.7749    1.3430  -11.0846    2.6373   42.9272   30.1221  -11.5413   16.7034   -8.4236   97.8256
  -51.9641  -78.1494  -48.6417   -3.6249   -1.0048    9.7321    6.6005   12.2216   22.7498  -34.8139
   28.4511  -18.2775   -6.2691   15.4428    1.3536   13.7225   10.5643  -15.2384   40.5164  -44.9235
  -34.2352 -161.6075 -169.9398   76.4767    3.1788  -15.2643    3.3223   15.2253   38.2597    2.9433
  -16.0817  -42.2241   -3.0966   11.8546   -0.9145    8.5681  -49.0013  -20.2156  -37.0787   -1.8260
   25.7531   72.5258  312.1196
   -6.5947   18.8855   -7.7990  -22.6287    5.0551   36.3094   30.9589   51.1746   -4.0038   28.1291
   67.0783  -28.9181    2.0645  -20.3424   23.0292    1.1413   -0.9080   -8.1839   14.5105   53.5094
  -10.5919    6.6703    2.5825  -10.4490    1.4093   22.2095  -28.9119   16.6779   -6.9689   83.8761
  -80.9391  -41.7516  -35.3533    4.5335   -9.5615    6.0670    2.6789    5.4546   29.9893  -30.3883
   21.5672   -8.5052    9.2270   30.9477    3.3841    2.8852    5.7415  -33.3866   53.1403  -85.3289
   -1.5793 -139.0705 -222.2922  108.7263   -4.4754  -15.9885  -15.6371    3.8123   -8.3095    5.6693
    2.4238   -8.9816   -2.1980  -12.1755   -1.7956    1.3631  -44.5938    1.3290  -59.8279    0.6200
   26.4408   61.3883  171.6941  394.3956
   -0.7909  -33.8236    6.9121  -11.3461  -13.0748  -14.0572   14.1454  -15.2794    2.9379   -0.1122
  -22.2838    8.2607    2.3650    7.2656  -10.6977   20.6580   11.2214    2.8864   -7.8222  -36.6107
   13.8834  -19.0734   -3.8449  -19.1032  -23.1997    1.3127   35.7071  -24.9760   -8.8073  -64.4712
   53.3515   36.2140   -2.4384    2.5610   10.1849   -7.5627  -13.9009   14.9473  -25.0360   24.3450
  -25.7035   -1.9345   -3.7033  -14.3967   -5.1878   -3.9174   10.4306   22.7701  -60.0794   35.0153
   54.1940  105.9475  171.1587 -204.5039    4.7956   16.8693    4.6139    7.5024  -33.7643    7.2430
    1.5318   12.3592   -3.3274   -2.0026   10.1897  -21.9698   27.4826  -12.5288   65.4305   34.6291
    4.2281  -30.0353 -148.2247 -185.5805  380.2217
   22.6803   14.6984   -0.3529   23.7414   -5.8623    4.8147  -12.7929   27.5573   -5.6288   -3.7284
    4.0353    0.4549   22.5275  -14.6998    9.4230   24.2291    8.6229    1.3936   15.2690    5.6479
    7.4630   29.4580  -13.5985    4.6193   24.9468   -4.0585   -8.1180   -0.1155    8.8500    8.1341
   -0.0883   10.3399    1.4261    5.1991  -16.8903    1.8213   -7.4350    3.7354   15.3775   -2.0575
    1.4695   -1.5955    9.5091    1.5685   -6.7384   -2.8527   11.6404    6.9896    2.6104  -14.0157
  -10.6084  -20.8082  -15.4059   -2.4806  -40.1800   23.9906   -5.1683  -72.3052   -2.7078  -20.4781
   15.7372   17.9135   -5.8170 -197.2201 -152.1067   14.3262   -2.7245   -2.0388   -9.6319    2.0735
    0.3588   17.6613   16.7604    5.8828  -13.2167  344.6916
   18.6228   19.2437    6.1075   36.6218   -6.1630    8.5647   -3.6895   13.3049   -9.8153    2.8231
  -14.1711    6.3145   -5.8389   -2.8773   12.2170   19.6981  -11.0182   -3.1923   -1.5907  -11.0719
    5.3695   43.0507   18.5765   -6.3911   41.6727    4.1196  -16.4545   25.5616   -4.6866   13.3925
   11.2691    7.9733    1.4158  -14.1586   -8.6351    1.5441   10.1682    8.7524    8.8101    0.4673
   14.7285    2.6857    9.9102    8.5007   -6.0050   -6.7888    9.4892   17.7800    5.6134    9.2336
  -16.6713  -23.9402  -15.2907   -1.8768  -18.1630   12.0364    0.3614  -36.2220   58.4491  -18.3967
   21.7587   13.4241  -11.5415 -195.7118 -281.7112    3.8912  -33.0895   -9.7372  -20.6248  -17.9554
   14.8113   40.4051   15.0856   20.5994  -19.8696  190.8313  421.2204
   -4.4508   -2.4286   -1.4580   -2.4177    0.4449    5.1070  -11.7227   10.4938   -3.3311    1.3882
   -7.3050   -0.7488   14.8431    3.1651    3.2225    8.2473   -2.1883    5.4766    5.0513   -3.3309
   -6.1949    1.3506   -1.8271   13.0092    2.4026   -6.3198  -12.5822    3.6791   -5.5100   -7.1812
   -5.7001   -2.4540   -8.4050   -4.2126    1.6404  -10.5703   -4.9226    2.5343  -11.4358    4.9152
    8.4239  -16.6436   -2.7309   -6.2140    2.4047  -13.1113   -5.7160    2.2884    5.5348    5.2263
   -0.2228   10.2808    5.3895  -12.6508    0.1868   -4.8162   -4.9214   -3.9421    3.6922   14.5054
    3.4165   -1.1117   -3.2491    1.1973    6.3158  -63.1458   -2.6929    7.5371  -11.6231   -2.9883
    5.7019    0.0082    3.8167   -3.6758   -3.7023   -3.0420   -7.3169  192.2950
    1.9340   -0.3749   15.4712   18.6667   21.6270    4.8884  -17.7069  -18.4823    0.2816   -5.4816
   -0.1836   -3.0792   -1.2111   -9.2305  -13.7984   -4.7054    4.6696   -8.4832   11.0496    5.8372
  -13.9472   -4.1250    5.1061   -9.3523    2.0413    6.8649    9.2800    0.1730   21.5497    3.0966
    3.1697   -1.9678   13.2263    0.6401    6.8767    4.2456   23.8485   -0.4432    6.6356    3.8237
    2.7040   15.0621   -0.9189    1.3956    3.0776  -30.5929  -16.1862    0.4511   30.7337    5.2162
   -0.2655    3.6549  -10.5448   -1.3853   13.9270    0.1505    1.7833  -16.2081    1.8227  -45.9148
   14.7200    5.2393   17.4836  -64.6842   14.2580  -11.5630   -8.1934   -1.9252    9.7900   -2.1428
  -13.8035   -2.3326  -12.3716    0.3277   10.1146   11.9288   -5.8045    7.5068  189.2101
   -7.0708    2.2388  -10.9004   -6.2607    0.6656    0.5965    6.4146    5.6533    7.4323    9.6311
    8.3924   -8.4637   17.8656   13.8196    2.9717   10.4638   -7.4942    4.0786  -13.3360  -11.7469
    0.8803    8.5616   17.2126    8.9439   16.9656    3.6871    7.9190    2.5757  -16.1578    2.7594
   15.6575    7.5819  -15.8068   -5.4324    2.3215   -1.3529    2.4720   13.3094   -7.8767    5.9550
    5.9018   -9.7499    2.7479    1.1412    1.8345   -8.6395    1.4490    4.4949    2.9203    3.0463
    6.6983   -8.6617    4.5739    9.5087  -28.1730  -16.7716  -15.8363   26.3408   25.2994   10.8049
   -9.6926   -5.7117  -18.0967   29.1316 -136.7528  113.0353   -5.7665   -6.6131   10.5141   -7.1355
    2.6849  -17.5295  -15.2053   -3.3590  -13.1858    4.0567   10.7573  -14.8559  -19.9234  268.4266
    4.6518  -26.8124   15.9598   23.6682   13.0200    7.4288  -11.8712   11.4457  -11.6746   -9.2777
    0.6536   -0.3913  -30.9644  -20.5196   10.1462  -17.3405  -15.2332   -1.5364   40.9292   35.1571
  -20.3632  -11.0122    6.7005  -17.7329   10.7837    5.9371  -12.1493   -1.5128   -8.3283   17.9519
  -25.5864  -32.0699  -22.6531   -4.4683    2.2745  -10.5594   -0.6602    2.9644  -14.8412   -8.6478
    9.4966  -19.2484    0.1950    9.3151   -0.1774    4.2501   -9.5734   12.8842    6.5639    6.5713
    3.8636    8.0612  -20.7933   -9.1007   12.5561    6.5326   28.1459  -54.9042   -9.3320    2.5870
    5.0584  -15.7596   16.2112  -23.6915  125.8912 -298.5535  -23.3028   -6.4774  -13.6344    9.9713
   15.5723   38.6732   25.3887   13.6741  -20.0597   28.4977    3.9122   16.9911   34.7831 -165.6887
  514.8078
   -5.4944   -3.7823    0.6344   12.0515    2.2319   -3.3373  -26.7067    9.2064   -7.2704  -10.8464
   11.8876   -0.1085   -5.3536  -13.3544   -2.9737   14.6701    4.4185   14.1197   11.6517    3.0901
  -14.9542    5.1763   -1.0741   17.6678   38.4716   -0.4475  -26.0213    5.0809   -3.0249   31.9209
  -15.5337  -11.6268  -13.3051   -3.8585    7.2312   -3.8626    0.8310   12.4172   14.3032   16.0311
   20.5563  -14.4328    4.0213   -0.6402    5.9368   -3.2104   -5.2329    0.7842   19.1591  -10.1463
    2.7274   19.3172  -29.9922   -0.4405   15.0939  -21.7695  -18.9529  -42.7018   43.6283    9.5069
   10.1888  -17.9992  -24.5709 -104.3474   72.2851   70.5287  -19.5581   -4.1415  -24.1284   -9.0818
    4.2085   38.0562   18.0258    8.5068  -14.6251   30.2700   11.0737   -9.6120    8.1874  -18.3711
    9.0747  235.7191
    0.1665    8.0331   -3.8992  -15.6153   12.1925   19.7866   33.4870   -9.7857   23.8704    7.1875
    2.9891   -0.5063   22.5199   -3.7727   -4.7531    0.4362   17.7168  -21.0428  -37.1132  -28.6957
   18.6346   19.4498   27.9604  -30.9720   -7.6499    2.0210   25.7799   17.4899   13.9940  -20.2182
    8.5203   -0.7967   11.8666   -5.9920   10.8086   -7.4892   -1.6033    7.6789  -12.0651   17.7578
   -0.0419   12.4881    0.4754    0.8687   -3.8388  -18.8761   -0.6005    2.9028   10.5861    1.0269
   18.8274  -38.0059   32.9351  -10.4308  -49.6242   32.8493   10.4024   64.3796  -34.9456   10.9048
    7.8547   16.7764   32.3616   81.1154 -228.8316 -155.2802   -1.2788    8.4695   29.3015   -6.3204
  -12.7133  -35.3582  -19.1887   -9.0396   20.5394  -29.0433  -13.0333    9.1685  -13.5495   21.5270
  -16.9060 -110.4176  400.5670
   -9.7674   18.2293    3.1925    0.8744   -1.8755   19.0856   -1.2193   17.6352   15.3382   20.2794
    3.8559   -8.3988   18.8386   -3.9777    1.2595    4.0689    5.2891  -12.7580  -12.5921  -19.4359
    4.9666   27.4351    2.1100  -25.0306   -7.1301   -0.5426   16.7335  -13.1321  -12.3914  -13.7737
    5.6032    1.8215  -18.8123  -10.2544   -7.6092  -15.3515  -17.4003   12.7681  -18.4961   13.2257
   -8.0042  -22.5517   -1.3990   -0.3060    4.5367  -21.0778    5.7543    8.6839   -2.8001   10.3138
   18.6547  -45.5445   11.3411  -11.5357  -27.4801   29.2985    7.5730   16.3735  -14.8279   35.7540
   16.9104   17.9034   28.0103   88.6223 -179.6550 -223.4821   19.3282    5.4593   17.8371   16.3059
   11.7892  -26.1975  -13.3428  -10.2633   -9.0065  -24.2768    4.4259    4.4364    2.1010    0.5937
    9.1988  -96.4597  189.0679  356.6321
   -5.0627   21.4026   14.1025   49.7766   29.1706  -27.6068  -14.2041    0.5777   17.9344    1.7061
   -8.5819    8.9138  -19.3123   -7.4767   12.7007   26.1164    0.4934  -12.3795   10.7298   14.6515
   -7.9411   -0.5707   -3.5886   -6.4802   16.5757    0.0367   -8.4965   -2.8465    4.2744    3.8424
    1.9830    4.9975    0.8083    0.4012   -1.8936    0.4432   -3.8900    8.3510   16.8014    1.1171
    5.3965   -3.9461   27.7456   23.7235   26.0979   39.2695    8.8591    2.3753  -42.2185  -29.0688
  -17.8944   12.0309   34.1571   27.4044 -214.6033 -192.8755  -91.7082   29.8443   33.3205   -4.6355
   -8.2583  -18.4365   -5.9701   -1.8151   10.7597   10.7259   -5.7708   -6.2341  -12.8191   -4.3835
  -11.7670   -0.2333    1.8569    2.5300    0.9202    7.4981    7.2874    3.6612  -15.7534   10.1538
   -0.8709    3.7999  -10.6472   -4.0061  366.4631
   18.2263   -2.9096   11.8186   31.3435   20.4454  -21.8650   -3.4877    0.9975    9.8047   -9.6014
    5.0100   -2.9192  -18.3816  -23.0895   16.7722   19.1507    8.1841  -14.6336   12.9995   28.5479
   -1.5560    2.9741    7.4343    0.0154   19.3429   -0.8826   -2.2730   -5.3772    9.1696    0.3382
    3.8071   -0.4127    0.8796    0.5906    1.7124    1.2193   -6.2639    5.7571    8.7401    4.6152
    1.4528   -2.1746   24.2615   24.8520   29.8703    1.4365   -8.3563   -1.0627   10.3130   18.5282
   -0.0229   18.9311   23.9883   20.9999 -195.6653 -206.7433  -96.2426    3.1073  -10.6949  -37.2238
   -4.2505   10.5805   11.0928   14.1255  -17.1887   10.3065   -4.6335   -5.6324   -1.3412    2.0832
  -23.8804  -14.8745   -2.4628    5.1142    0.7883    9.2806    2.4129    3.1692  -14.4481   10.8304
   -5.2856   -6.7235   14.1526    8.6416  159.2172  359.4361
    5.4962    0.7524    4.3092   15.5008   33.3448  -10.0333    1.5498   -4.8592    9.4139   -0.3149
   17.6860   12.3992   27.9738    3.7264   -6.2032   -0.8436   18.9562   -7.2037   26.1580   13.8763
    1.1599   -1.3400    2.5094    6.4434   12.9888    2.9499   -8.2307    1.2113   -1.7619   12.9779
  -17.6356  -10.4073  -15.1766   -0.5328   -0.4642   -2.2412   -2.7638    2.6053   10.7616   -4.9130
    8.5185    1.2296  -32.9644  -38.4314  -48.4719   -4.1735   -6.5386    3.2060   -9.2574  -28.5682
   13.2062    4.9567    3.0127   -4.2946 -105.4115  -83.6669 -134.1302  -38.3493  -26.0707   -6.6347
    6.5612   -0.3755   16.1985   13.1049    1.2104   -6.8675  -13.1139   -4.0402   -6.7618    7.4585
    7.1704   24.5048   14.6495   16.1551  -15.3625   13.9262    8.8792   -2.9521    6.9999   -7.2007
   22.4227    4.0956   -5.8431   -2.3000  139.4283  148.3461  252.3951
  -70.3724    6.2849    1.7822   19.4199   10.1092    3.4171  -18.4496   -9.8039    6.1485  -42.9907
   -2.4431    9.0646  -31.3659   -9.0994   -8.8955    2.5960    9.4309   -6.1477   14.4632  -11.8471
   -5.0670  -32.7240   -1.1447  -64.9135   14.2172   -2.5383    1.4343    1.1381    2.7499   -8.3906
   -0.2148    7.2811    3.0354    2.9822   10.3244    0.6208   -2.8883   11.8271   17.4326    4.4863
  -18.5336   20.4452    7.5558   11.9153   -3.3031    8.9738    7.2501    1.4506  -14.0174   -6.4608
    6.7124  -46.0047   -3.2997   -8.6422  -21.0216  -12.6557    2.5875   -6.3482    6.4421   -1.0157
   23.3855    2.7333   -1.0039  -43.8515   -3.7367   59.3784   25.7776   -4.5264   -0.7268    1.7016
    8.8446    6.8899    0.7542    1.0589   -2.3103   13.0417   14.2192    1.9762   -6.0404    9.0715
  -18.6531    9.8694  -22.6272  -17.5902    2.4353    7.2781    3.2762  177.0528
    2.9531  -84.6318   -0.5108  -12.8900   19.5566   -2.4473   20.0718    5.1767    1.6697   12.0712
  -24.4448  -66.5155  -20.0715  -30.4000   -1.8152   -1.7950  -10.3596   -5.5701   -1.9150    8.3690
    0.4121    0.0965  -35.4240    2.6251  -17.6486    2.4339    1.9754   -5.5685  -16.5026   15.4336
    7.6761   14.8842   19.6178    7.0926   10.1725    1.6287    0.8658   -0.7677    4.9774   -6.7234
    5.8044   -4.8186   13.4646   11.1194   -5.1760   -7.1522   23.1937    3.5667    9.8247   -4.1266
    2.1636   -9.7673  -32.6458   62.4898   -4.4003  -28.3688    9.8870   -9.5632  -13.1231   -4.9895
   12.0670   11.7127   -3.1281    0.9366  -46.2057   -5.7562   -1.0771   -2.2688    2.2498   -4.4986
   -9.7995  -19.9622   17.9769   15.7700  -20.1434   13.7030   12.1503   -0.2010    1.8489   -2.2177
   -4.3407   -5.0563    9.0055    9.0645    5.7238    5.5221    2.1074    1.7704  178.3977
    1.6282  -11.3147 -610.8058   19.2441    6.7865   17.2905  -19.5050  -11.4813   14.8552    2.0528
  -21.5637  -10.5662   -5.6047   18.0200   16.0389    3.5735  -24.6401   10.7172    9.1890   17.6721
   20.8292   -7.2088    1.5876  -11.2169    6.9059   -3.5363    8.9508   -1.4138   -1.1896   18.2330
   -1.3188   -2.5376   11.1092   -9.5378   -9.8738    6.5520   -1.8426   10.5128   29.5971   -3.0399
    4.6770    6.4664   -0.8318   -2.3356    9.3696   -9.0435    9.4597    6.0877  -21.6591   30.0549
   15.3736    5.5671    6.0451   -5.5607   14.2435  -20.3429   14.4868   -0.8623  -20.1758   13.2228
   10.6064   10.6893    4.0949   -3.3964   10.2618   -3.8859   -6.2614    3.1229    5.3843    1.9624
    2.9925   11.7222   -3.6856   -2.5324   15.7977    1.9753    0.5052    3.2618    1.7205  -10.5479
   24.6380    0.2989    1.4511    7.2947    8.8614    8.7965   10.6689    1.0389    3.3647  562.4245
  -94.8056   -5.0105    0.5732   -7.5448   -2.2430    1.1767   -0.1331   20.3679    0.4092   -6.3162
   12.7916   -8.9634    5.1155  -12.6187   13.1570    8.1007   28.0272  -16.5547   11.2176  -20.0784
   22.5720    6.4574   -1.8046   34.2964   -4.9170   -0.6677    2.5174    2.7467   -3.3466   -3.8824
   -2.3855   -1.7491    3.7274    4.5462   11.3765    3.0485   -2.8389   -8.6003  -19.5029   -3.0303
    1.7014    0.3516   -2.1868    0.2324    0.3295    3.5788   -2.9884    8.1505   -6.7868    6.5090
   -3.8884  -24.7861  -11.1154    2.7227   -3.3284    6.8790   -0.0011    9.9074   19.1234    0.5473
    9.1827  -28.7639  -21.2772   13.8748  -13.6840  -35.9544    4.5901   -2.0310    4.3508    6.2780
    0.0847    5.4844   13.1659   11.6678  -10.2111    4.2208    8.9613   -3.8396   -1.5591   -8.9197
   20.4228   -9.2651    9.6975    5.0592   -1.0639    2.4306   -0.7936    1.9585    1.4197   -5.8528
  201.5274
   -3.7355 -122.3663   -3.6558  -24.7291   28.0633    9.2167   25.4062    8.2142   -1.1349   -7.5122
    9.6806   39.8624  -10.5187   -5.3169    6.8072   12.6851    0.6652    5.0783   -3.8791   -1.4277
    1.2145    1.7592  -20.8409   -9.1217   -1.5331   -3.3794   -1.9016    3.2600    0.4595  -15.7299
    0.4906   -1.4155   -3.9664    6.9869   13.0498    1.6340   -2.8227    1.7707   -1.8892   -2.9874
    3.0473   -1.6192    4.1831    5.5004   -4.5665  -31.5529   29.6457  -15.9793   31.4803    4.0985
    8.5186    3.2868   12.1502  -38.8702   -5.0521    3.1848   -7.6529   10.8217    0.6289    0.1955
   -1.3616   -8.9270   -3.1150    6.3265   -6.9788    6.3775  -10.0615   -2.6091   -7.5336    6.9089
    4.0555   28.9489   -2.8558   -8.3978    2.9114    5.1756    7.6768    0.1155   -2.8103    0.1097
    5.5799   -0.5946   -3.8534   -1.2947    4.3429    5.2696    3.9156   -0.3653    5.7280    1.0487
    8.2554  205.2449
   32.0647   -4.3315 -343.2463  -22.0744  -95.3146   46.2285   36.5810   26.6799   19.2217   11.5330
   22.1221  -19.2521  -16.9684  -29.0664   19.2791  -25.3342  -44.9581   50.9575  -31.2756   75.8610
   38.7329    9.8163   -6.0540  -43.2215  -22.2244  -10.1404   32.8032    3.2064   12.2992   10.1550
  -12.8100  -15.6467   20.7775   -0.2993   10.1369    8.4294    3.9040   13.3159   47.4106    4.0624
    5.8536    7.3656   -5.9359   -0.6558   37.9176   27.2268   33.0008  -13.3895  -26.1307   -7.1909
   29.2175  -14.1289   35.8483   18.6282    1.6915  -34.5939  -10.3098  -42.3924  -12.6524    5.8672
   12.5723   39.4404   31.8071   53.1482   -7.4701    3.3424   11.9766    6.0840   27.2304   23.8783
   -8.8302   11.2664    2.2107  -17.4246    7.5445  -34.7479  -33.3587   -4.6934    7.6983  -24.8811
   52.8805  -19.9027   38.1348   14.6973   -1.7356    2.6566    2.1383    0.8797    6.3285  179.0278
    0.1089   10.8721 2456.4684
  -47.5129   12.8828    0.8798  -20.8086  -11.0745    1.1907   -9.2420   19.4753    2.7561   -4.3167
   -7.4533   -7.7261    6.1878  -10.1961   14.6917   -6.9634   22.3618   -6.4608   -2.8650  -20.9465
   13.3839    4.8249   -2.9761   73.5603   -2.7885   -1.1894    0.6291   -0.5646   -3.6152   -2.1365
   -1.0893    1.4853    3.5275   -3.8300   -0.9824    2.7428    6.1919  -13.9189  -24.4226   -9.0080
   14.7383  -13.3182    6.3564    6.2642   -7.7183  -29.2957  -14.7756    1.4366   -5.0820   22.6804
   -0.2572   -9.8449   -0.6797   14.0265    7.0852  -17.7373  -13.0262  -13.0939   20.2661   -4.2735
    6.4698  -12.9951  -15.3254    2.7915   -6.1475  -69.8919    7.8640   -1.8881    3.7930    0.2832
   -0.8193   -5.6106   -0.7707   -1.9426   -2.7038   -0.2702   -1.4136   -3.2514    1.2215  -14.5407
   24.5646   -7.1046   12.3786    9.8561    8.9570    9.2269    3.8801   -0.0257   -3.9219    0.0549
  -20.0271    2.4324   -9.1032  173.6763
   14.5339  -34.2273    2.2943  -15.4116  -10.1741   15.7163   17.3161   -3.1841   -3.4067  -12.5920
  -10.8781   74.2623   -9.8878    7.5981   12.3730   18.5263   -6.7184    2.0763   -8.4790  -25.3150
   -1.6210   -4.3875  -12.2814   -8.3546    5.5798   -3.1316    0.9038    9.2465   11.8681  -24.4267
   -4.1239   -7.4236  -10.3150    0.2907    0.2269   -0.3225   -1.3602    4.6077    3.7022   -1.4556
    2.4749   -2.3920    4.3887    2.9842   -5.1900  -14.6059   -4.1713  -15.1419   14.0258   -5.6073
    0.7450   -0.6879   -7.2932  -70.2175  -13.6854   10.3094  -15.0550   17.2321  -14.3048    0.0647
   -6.6167  -15.4538    1.6280  -12.1818   -8.4930    5.7151   -3.9879   -0.8902   -5.3720    9.4350
   11.9933   30.1182   -7.5793  -10.8874   10.0401    3.5554    3.6426   -0.4882   -3.1155    4.4648
   -6.0551    0.8589   -3.7416    1.6306    5.5609    4.3821    2.6523   -2.7323    0.0033   -1.2705
    0.4929  -18.1588  -17.8895    4.8543  173.5845
  -21.9817    7.9039 -111.3629   18.6163   58.8921  -34.3066   11.5980   -6.7200  -10.6337  -17.2303
  -34.0626   -8.4452  -13.7967   26.8699   -3.7232   30.0174   32.4692  -19.5692   12.1297  -49.2871
  -32.1805  -24.0455   -5.0511    3.5040   16.9921    6.3662  -18.6987   -3.7774  -25.4583   26.5267
   24.3272   20.8836    4.9162   12.0341    5.9942    3.7029  -18.4435    0.9855   -4.8064   -6.4994
  -10.9694   16.0529    0.7967    1.9402  -15.3175   21.3327   16.5635   53.3906  -35.0064  -21.5334
  -26.6791   14.6792  -40.4185  -64.4322   -9.3618   29.5388   14.3599   50.3749   -8.9932   17.7850
  -24.8314  -42.4023  -28.9821  -30.7704   18.9006  -36.4683  -17.3096   -2.9625   -8.6909  -18.3729
   16.6695   36.6169   -5.5625   22.1768   13.1253   25.2566   28.1953   11.7123   -0.0150    5.2370
    2.2764   10.9013  -23.6856    9.4955    9.0268    8.1830   14.3448   -0.2107   -3.6991    2.7707
    5.9234   -6.8892-2007.9422    5.7121   16.0619 2089.1127


      MOLECULAR POINT GROUP   :   C2  


          ALPHA EIGENVALUES  
 -34.14064 -33.14266 -31.46030 -29.89257 -29.49802 -27.65057 -27.22314 -26.55412
 -26.30769 -25.04174 -24.49580 -24.27503 -23.41982 -20.48047 -20.30211 -18.90079
 -18.04677 -17.30446 -17.20069 -17.06988 -16.42211 -15.88416 -15.66649 -15.57358
 -15.46950 -15.39338 -15.03918 -14.85355 -14.30329 -14.18716 -13.99630 -13.94192
 -13.74940 -13.46800 -13.29501 -13.09801 -13.03065 -12.96503 -12.71171 -12.60108
 -11.98455 -11.47222 -11.46525 -10.87063 -10.73000  -9.76798  -9.63607  -9.50108
  -9.41629  -8.67733  -8.63110  -8.28517  -0.11140   0.16965   0.23507   0.75802
   0.78988   0.86456   1.92321   1.94196   2.16825   3.42578   3.45376   3.50367
   3.96027   3.98135   4.03846   4.14555   4.72962   4.83700   5.05616   5.28186
   5.31318   5.34352   5.34490   5.38244   5.38336   5.53814   5.61571   5.63201
   5.69269   6.47916   6.54454   6.55954   6.56549   6.60153   6.68829   7.01778
  52.37518  52.57034  56.35511  75.75224  75.76926  77.23556  79.80607  80.00086


           BETA EIGENVALUES 
 -34.05976 -33.06644 -31.48084 -29.92523 -29.52780 -27.64122 -27.24079 -26.56787
 -26.32502 -25.02804 -24.49390 -24.25869 -23.36309 -20.47605 -20.29950 -18.83267
 -18.04379 -17.30818 -17.15621 -17.07676 -16.38350 -15.85396 -15.65816 -15.47843
 -15.41968 -15.38362 -15.02141 -14.84128 -14.27446 -14.16791 -13.97408 -13.94110
 -13.69946 -13.47485 -13.26444 -13.05389 -12.97431 -12.91146 -12.69531 -12.56082
 -11.81407 -11.49977 -11.38803 -10.82834 -10.70497  -9.50574  -9.46464  -9.32701
  -9.17514  -7.69782  -0.87388  -0.31015   0.03963   0.18352   0.73019   0.76287
   1.16501   1.24270   1.95306   2.02274   2.28191   3.42773   3.46055   3.51664
   3.96216   3.98855   4.05357   4.14780   4.73668   4.90694   5.07562   5.28742
   5.31678   5.34365   5.34509   5.38351   5.38438   5.53985   5.62627   5.63599
   5.70406   6.51537   6.54506   6.56287   6.56659   6.62283   6.69228   7.25776
  52.92840  53.21057  56.84145  75.76290  75.77959  77.23987  79.89608  80.10106


              NET ATOMIC CHARGES AND DIPOLE CONTRIBUTIONS

  ATOM NO.   TYPE          CHARGE      No. of ELECS.   s-Pop       p-Pop       d-Pop       
    1         Mn           0.546314        6.4537     0.88900     0.40681     5.15788
    2          O          -0.418662        6.4187     1.87145     4.54721
    3          C           0.548339        3.4517     1.11399     2.33767
    4          C          -0.507476        4.5075     1.06214     3.44533
    5          C          -0.626126        4.6261     1.06263     3.56349
    6          C           0.554958        3.4450     1.11303     2.33201
    7          O          -0.454534        6.4545     1.87476     4.57977
    8          C          -0.503761        4.5038     1.06158     3.44218
    9          H           0.179315        0.8207     0.82068
   10          H           0.183041        0.8170     0.81696
   11          H           0.170943        0.8291     0.82906
   12          H           0.169710        0.8303     0.83029
   13          H           0.186335        0.8137     0.81367
   14          H           0.180332        0.8197     0.81967
   15          H           0.194145        0.8059     0.80586
   16          O          -0.418638        6.4186     1.87140     4.54724
   17          C           0.548220        3.4518     1.11389     2.33789
   18          C          -0.507475        4.5075     1.06206     3.44542
   19          C          -0.626554        4.6266     1.06261     3.56395
   20          C           0.554768        3.4452     1.11288     2.33235
   21          O          -0.454571        6.4546     1.87475     4.57982
   22          C          -0.503723        4.5037     1.06147     3.44226
   23          H           0.179172        0.8208     0.82083
   24          H           0.183208        0.8168     0.81679
   25          H           0.170789        0.8292     0.82921
   26          H           0.169640        0.8304     0.83036
   27          H           0.186470        0.8135     0.81353
   28          H           0.180192        0.8198     0.81981
   29          H           0.194061        0.8059     0.80594
   30         Cl          -0.530918        7.5309     1.96106     5.55177     0.01809
   31          C           0.551262        3.4487     1.40248     2.04626
   32          O          -0.278778        6.2788     1.85393     4.42485
 DIPOLE           X         Y         Z       TOTAL
 POINT-CHG.     0.007    -0.000     0.363     0.363
 HYBRID        -0.002    -0.000     1.139     1.139
 SUM            0.005    -0.000     1.502     1.502


          ATOMIC ORBITAL ELECTRON POPULATIONS

     Atom    s        px        py        pz      x^2-y^2     xz        z^2       yz        xy
    1 Mn   0.88900   0.12388   0.11873   0.16420   0.61082   1.07875   0.63176   1.79607   1.04047
    2  O   1.87145   1.45323   1.56326   1.53072
    3  C   1.11399   0.83239   0.84900   0.65629
    4  C   1.06214   1.18935   1.06568   1.19030
    5  C   1.06263   1.10508   1.10058   1.35783
    6  C   1.11303   0.83782   0.82698   0.66721
    7  O   1.87476   1.55330   1.50650   1.51997
    8  C   1.06158   1.06847   1.18450   1.18922
    9  H   0.82068
   10  H   0.81696
   11  H   0.82906
   12  H   0.83029
   13  H   0.81367
   14  H   0.81967
   15  H   0.80586
   16  O   1.87140   1.45238   1.56323   1.53162
   17  C   1.11389   0.83279   0.84893   0.65617
   18  C   1.06206   1.18919   1.06579   1.19043
   19  C   1.06261   1.10465   1.10078   1.35852
   20  C   1.11288   0.83842   0.82702   0.66692
   21  O   1.87475   1.55356   1.50456   1.52170
   22  C   1.06147   1.06832   1.18465   1.18929
   23  H   0.82083
   24  H   0.81679
   25  H   0.82921
   26  H   0.83036
   27  H   0.81353
   28  H   0.81981
   29  H   0.80594
   30 Cl   1.96106   1.97668   1.99026   1.58484   0.00151   0.00600   0.00329   0.00617   0.00112
   31  C   1.40248   0.52886   0.56724   0.95015
   32  O   1.85393   1.53117   1.57059   1.32309


                    (SZ)    =    1.000000
                    (S**2)  =    2.010653


          ATOMIC ORBITAL SPIN POPULATIONS

    Atom   Total    s     px     py     pz   x^2-y^2  xz     z^2    yz     xy
         Atomic
    1 Mn  1.9980  0.021  0.002  0.001  0.001  0.042  0.841  0.048  0.098  0.943
    2  O -0.0165  0.000 -0.003 -0.015  0.001
    3  C  0.0063  0.001  0.001  0.001  0.003
    4  C -0.0009 -0.000 -0.000 -0.001 -0.000
    5  C  0.0120  0.000  0.001  0.001  0.010
    6  C  0.0105  0.002  0.004  0.003  0.002
    7  O -0.0096  0.001 -0.017  0.005  0.001
    8  C  0.0013  0.000  0.001 -0.000 -0.000
    9  H  0.0000  0.000
   10  H  0.0001  0.000
   11  H  0.0001  0.000
   12  H  0.0004  0.000
   13  H -0.0001 -0.000
   14  H  0.0000  0.000
   15  H  0.0001  0.000
   16  O -0.0166  0.000 -0.003 -0.015  0.001
   17  C  0.0064  0.001  0.001  0.001  0.003
   18  C -0.0009 -0.000 -0.000 -0.001 -0.000
   19  C  0.0118  0.000  0.001  0.001  0.010
   20  C  0.0106  0.002  0.004  0.003  0.002
   21  O -0.0098  0.001 -0.017  0.005  0.001
   22  C  0.0013  0.000  0.001 -0.000 -0.000
   23  H  0.0000  0.000
   24  H  0.0001  0.000
   25  H  0.0001  0.000
   26  H  0.0004  0.000
   27  H -0.0001 -0.000
   28  H  0.0000  0.000
   29  H  0.0001  0.000
   30 Cl -0.0005 -0.000  0.014  0.001 -0.016  0.000  0.000  0.000  0.000  0.000
   31  C -0.0229 -0.005  0.003 -0.017 -0.003
   32  O  0.0184  0.001  0.026 -0.007 -0.002

 **********************
 *                    *
 * JOB ENDED NORMALLY *
 *                    *
 **********************



 TOTAL JOB TIME:             4.76 SECONDS

 == MOPAC DONE ==
