 *******************************************************************************
 ** Site#: 26130        For non-commercial use only     Version 16.299L 64BITS**
 *******************************************************************************
 ** Cite this program as: MOPAC2016, Version: 16.299L, James J. P. Stewart,   **
 ** Stewart Computational Chemistry, web: HTTP://OpenMOPAC.net. Days left: 350**
 *******************************************************************************
 **                                                                           **
 **                                MOPAC2016                                  **
 **                                                                           **
 *******************************************************************************

                              PM7 CALCULATION RESULTS


 *******************************************************************************
 *  CALCULATION DONE:                                Thu Nov 10 16:01:26 2016  *
 *  PM7        - The PM7 Hamiltonian to be used
 *  QUINTET    - SPIN STATE DEFINED AS A QUINTET
 *  UHF        - UNRESTRICTED HARTREE-FOCK CALCULATION
 *  XYZ        - CARTESIAN COORDINATE SYSTEM TO BE USED
 *  EF         - USE EF ROUTINE FOR MINIMUM SEARCH
 *  T=         - A TIME OF 172800.0 SECONDS REQUESTED
 *  DUMP=N     - RESTART FILE WRITTEN EVERY  7200.000 SECONDS
 *  HESSIAN    - WRITE OUT HESSIAN FROM GEOMERY OPTIMIZATION
 *******************************************************************************
 EF PM7 XYZ HESSIAN QUINTET UHF
 1008_M_2_5

   ATOM   CHEMICAL          X               Y               Z
  NUMBER   SYMBOL      (ANGSTROMS)     (ANGSTROMS)     (ANGSTROMS)
 
     1      Mn          0.00000000  *   0.00000000  *   0.00000000  *
     2       O          0.00000000  *   2.10000000  *   0.00000000  *
     3       C          0.94748900  *   2.87236100  *  -0.00161000  *
     4       C          0.71730100  *   4.36273800  *  -0.00605500  *
     5       C          2.34672200  *   2.40570700  *   0.00087000  *
     6       C          2.82101900  *   0.99544500  *   0.00187400  *
     7       O          2.10000100  *  -0.00000100  *   0.00000000  *
     8       C          4.31377300  *   0.79815100  *   0.00478700  *
     9       H         -0.35890100  *   4.56125600  *  -0.00822600  *
    10       H          1.14829700  *   4.80814100  *  -0.90536400  *
    11       H          1.14569400  *   4.81301900  *   0.89205400  *
    12       H          4.85285000  *   1.74879700  *   0.00773800  *
    13       H          4.59670600  *   0.24001600  *  -0.89240400  *
    14       H          4.59298100  *   0.23666100  *   0.90105500  *
    15       H          3.10067600  *   3.17908900  *   0.00165000  *
    16       O          0.00000000  *  -2.10000000  *   0.00000000  *
    17       C         -0.94610300  *  -2.87341000  *  -0.00179500  *
    18       C         -0.71314300  *  -4.36315100  *  -0.00600300  *
    19       C         -2.34769900  *  -2.40385900  *   0.00029100  *
    20       C         -2.82224700  *  -0.99888100  *   0.00163000  *
    21       O         -2.10000100  *   0.00000100  *   0.00000000  *
    22       C         -4.31374400  *  -0.79909700  *   0.00458600  *
    23       H          0.36520800  *  -4.55843700  *  -0.00808600  *
    24       H         -1.14141500  *  -4.81142800  *  -0.90554800  *
    25       H         -1.13887100  *  -4.81614500  *   0.89237700  *
    26       H         -4.85352700  *  -1.75098500  *   0.00769000  *
    27       H         -4.59878500  *  -0.24192700  *  -0.89246900  *
    28       H         -4.59476200  *  -0.23863700  *   0.90088600  *
    29       H         -3.10311300  *  -3.18132000  *   0.00109000  *
    30      Cl          0.00000000  *   0.00000000  *  -2.38000000  *
    31       C          0.00000000  *   0.00000000  *   2.22000000  *
    32       O          0.00000000  *   0.00000000  *   3.35805500  *
 


          CARTESIAN COORDINATES 

    NO.       ATOM         X         Y         Z

     1        Mn        0.0000    0.0000    0.0000
     2         O        0.0000    2.1000    0.0000
     3         C        0.9475    2.8724   -0.0016
     4         C        0.7173    4.3627   -0.0061
     5         C        2.3467    2.4057    0.0009
     6         C        2.8210    0.9954    0.0019
     7         O        2.1000   -0.0000    0.0000
     8         C        4.3138    0.7982    0.0048
     9         H       -0.3589    4.5613   -0.0082
    10         H        1.1483    4.8081   -0.9054
    11         H        1.1457    4.8130    0.8921
    12         H        4.8529    1.7488    0.0077
    13         H        4.5967    0.2400   -0.8924
    14         H        4.5930    0.2367    0.9011
    15         H        3.1007    3.1791    0.0016
    16         O        0.0000   -2.1000    0.0000
    17         C       -0.9461   -2.8734   -0.0018
    18         C       -0.7131   -4.3632   -0.0060
    19         C       -2.3477   -2.4039    0.0003
    20         C       -2.8222   -0.9989    0.0016
    21         O       -2.1000    0.0000    0.0000
    22         C       -4.3137   -0.7991    0.0046
    23         H        0.3652   -4.5584   -0.0081
    24         H       -1.1414   -4.8114   -0.9055
    25         H       -1.1389   -4.8161    0.8924
    26         H       -4.8535   -1.7510    0.0077
    27         H       -4.5988   -0.2419   -0.8925
    28         H       -4.5948   -0.2386    0.9009
    29         H       -3.1031   -3.1813    0.0011
    30        Cl        0.0000    0.0000   -2.3800
    31         C        0.0000    0.0000    2.2200
    32         O        0.0000    0.0000    3.3581

 General Reference for PM7:
 "Optimization of Parameters for Semiempirical Methods VI: More Modifications to the 
 NDDO Approximations and Re-optimization of Parameters", J. J. P. Stewart, J. Mol. Mod., 1:32, 19 (2013)
 http://www.springerlink.com/openurl.asp?genre=article&id=doi:10.1007/s00894-012-1667-x

           Empirical Formula: C11 H14 O5 Mn Cl  =    32 atoms



      MOLECULAR POINT GROUP   :   C2  


 QUINTET STATE CALCULATION


          UHF CALCULATION, NO. OF ALPHA ELECTRONS =   53
                           NO. OF BETA  ELECTRONS =   49

          Geometry optimization using EF

          DIAGONAL MATRIX USED AS START HESSIAN

 CYCLE:     1 TIME:   0.254 TIME LEFT:  2.00D  GRAD.:   260.012 HEAT: -130.8717
 CYCLE:     2 TIME:   0.055 TIME LEFT:  2.00D  GRAD.:   290.049 HEAT: -165.9758
 CYCLE:     3 TIME:   0.066 TIME LEFT:  2.00D  GRAD.:   204.050 HEAT: -183.7994
 CYCLE:     4 TIME:   0.070 TIME LEFT:  2.00D  GRAD.:   145.008 HEAT: -192.2573
 CYCLE:     5 TIME:   0.031 TIME LEFT:  2.00D  GRAD.:   128.385 HEAT: -198.4322
 CYCLE:     6 TIME:   0.031 TIME LEFT:  2.00D  GRAD.:   152.931 HEAT: -202.7862
 CYCLE:     7 TIME:   0.031 TIME LEFT:  2.00D  GRAD.:   145.087 HEAT: -206.3863
 CYCLE:     8 TIME:   0.039 TIME LEFT:  2.00D  GRAD.:   172.533 HEAT: -206.7202
 CYCLE:     9 TIME:   0.031 TIME LEFT:  2.00D  GRAD.:   125.678 HEAT: -210.6716
 CYCLE:    10 TIME:   0.062 TIME LEFT:  2.00D  GRAD.:    66.487 HEAT: -214.4521
 CYCLE:    11 TIME:   0.062 TIME LEFT:  2.00D  GRAD.:    51.885 HEAT: -215.3656
 CYCLE:    12 TIME:   0.035 TIME LEFT:  2.00D  GRAD.:    51.124 HEAT: -216.2290
 CYCLE:    13 TIME:   0.035 TIME LEFT:  2.00D  GRAD.:    41.482 HEAT: -217.5811
 CYCLE:    14 TIME:   0.035 TIME LEFT:  2.00D  GRAD.:    86.427 HEAT: -218.0455
 CYCLE:    15 TIME:   0.031 TIME LEFT:  2.00D  GRAD.:    62.271 HEAT: -219.9149
 CYCLE:    16 TIME:   0.086 TIME LEFT:  2.00D  GRAD.:    36.397 HEAT: -220.7827
 CYCLE:    17 TIME:   0.031 TIME LEFT:  2.00D  GRAD.:    38.124 HEAT: -221.3057
 CYCLE:    18 TIME:   0.031 TIME LEFT:  2.00D  GRAD.:    44.707 HEAT: -222.0758
 CYCLE:    19 TIME:   0.027 TIME LEFT:  2.00D  GRAD.:    70.710 HEAT: -222.6680
 CYCLE:    20 TIME:   0.043 TIME LEFT:  2.00D  GRAD.:    60.056 HEAT: -223.5535
 CYCLE:    21 TIME:   0.074 TIME LEFT:  2.00D  GRAD.:    57.383 HEAT: -224.0794
 CYCLE:    22 TIME:   0.031 TIME LEFT:  2.00D  GRAD.:    18.064 HEAT: -225.0001
 CYCLE:    23 TIME:   0.055 TIME LEFT:  2.00D  GRAD.:    40.438 HEAT: -225.0368
 CYCLE:    24 TIME:   0.027 TIME LEFT:  2.00D  GRAD.:    15.970 HEAT: -225.7489
 CYCLE:    25 TIME:   0.059 TIME LEFT:  2.00D  GRAD.:    36.265 HEAT: -225.7524
 CYCLE:    26 TIME:   0.027 TIME LEFT:  2.00D  GRAD.:    15.019 HEAT: -226.3902
 CYCLE:    27 TIME:   0.059 TIME LEFT:  2.00D  GRAD.:    30.663 HEAT: -226.4388
 CYCLE:    28 TIME:   0.031 TIME LEFT:  2.00D  GRAD.:    14.733 HEAT: -226.9427
 CYCLE:    29 TIME:   0.055 TIME LEFT:  2.00D  GRAD.:    19.365 HEAT: -227.0411
 CYCLE:    30 TIME:   0.031 TIME LEFT:  2.00D  GRAD.:    10.122 HEAT: -227.3214
 CYCLE:    31 TIME:   0.031 TIME LEFT:  2.00D  GRAD.:    20.216 HEAT: -227.5384
 CYCLE:    32 TIME:   0.031 TIME LEFT:  2.00D  GRAD.:    11.470 HEAT: -227.9681
 CYCLE:    33 TIME:   0.059 TIME LEFT:  2.00D  GRAD.:    26.675 HEAT: -227.9870
 CYCLE:    34 TIME:   0.027 TIME LEFT:  2.00D  GRAD.:     9.335 HEAT: -228.4994
 CYCLE:    35 TIME:   0.082 TIME LEFT:  2.00D  GRAD.:    17.241 HEAT: -228.5199
 CYCLE:    36 TIME:   0.027 TIME LEFT:  2.00D  GRAD.:     7.397 HEAT: -228.7426
 CYCLE:    37 TIME:   0.027 TIME LEFT:  2.00D  GRAD.:    16.434 HEAT: -228.8687
 CYCLE:    38 TIME:   0.031 TIME LEFT:  2.00D  GRAD.:    11.736 HEAT: -229.1594
 CYCLE:    39 TIME:   0.027 TIME LEFT:  2.00D  GRAD.:    26.644 HEAT: -229.2079
 CYCLE:    40 TIME:   0.031 TIME LEFT:  2.00D  GRAD.:    13.102 HEAT: -229.7995
 CYCLE:    41 TIME:   0.137 TIME LEFT:  2.00D  GRAD.:     7.757 HEAT: -229.8713
 CYCLE:    42 TIME:   0.031 TIME LEFT:  2.00D  GRAD.:     5.031 HEAT: -229.9318
 CYCLE:    43 TIME:   0.027 TIME LEFT:  2.00D  GRAD.:     9.105 HEAT: -230.0072
 CYCLE:    44 TIME:   0.027 TIME LEFT:  2.00D  GRAD.:     8.236 HEAT: -230.1368
 CYCLE:    45 TIME:   0.031 TIME LEFT:  2.00D  GRAD.:     9.618 HEAT: -230.3675
 CYCLE:    46 TIME:   0.027 TIME LEFT:  2.00D  GRAD.:    19.917 HEAT: -230.6665
 CYCLE:    47 TIME:   0.031 TIME LEFT:  2.00D  GRAD.:    17.458 HEAT: -231.2211
 CYCLE:    48 TIME:   0.027 TIME LEFT:  2.00D  GRAD.:    36.476 HEAT: -231.2522
 CYCLE:    49 TIME:   0.031 TIME LEFT:  2.00D  GRAD.:    29.762 HEAT: -232.0167
 CYCLE:    50 TIME:   0.090 TIME LEFT:  2.00D  GRAD.:    24.538 HEAT: -232.3864
 CYCLE:    51 TIME:   0.027 TIME LEFT:  2.00D  GRAD.:    18.828 HEAT: -232.6145
 CYCLE:    52 TIME:   0.031 TIME LEFT:  2.00D  GRAD.:    20.937 HEAT: -232.7489
 CYCLE:    53 TIME:   0.027 TIME LEFT:  2.00D  GRAD.:    16.414 HEAT: -233.0024
 CYCLE:    54 TIME:   0.055 TIME LEFT:  2.00D  GRAD.:    22.111 HEAT: -233.0202
 CYCLE:    55 TIME:   0.027 TIME LEFT:  2.00D  GRAD.:    10.104 HEAT: -233.2757
 CYCLE:    56 TIME:   0.031 TIME LEFT:  2.00D  GRAD.:    22.768 HEAT: -233.3227
 CYCLE:    57 TIME:   0.027 TIME LEFT:  2.00D  GRAD.:    14.442 HEAT: -233.6200
 CYCLE:    58 TIME:   0.082 TIME LEFT:  2.00D  GRAD.:    16.574 HEAT: -233.6425
 CYCLE:    59 TIME:   0.027 TIME LEFT:  2.00D  GRAD.:     5.237 HEAT: -233.7937
 CYCLE:    60 TIME:   0.031 TIME LEFT:  2.00D  GRAD.:    12.586 HEAT: -233.8676
 CYCLE:    61 TIME:   0.027 TIME LEFT:  2.00D  GRAD.:    10.696 HEAT: -234.0433
 CYCLE:    62 TIME:   0.027 TIME LEFT:  2.00D  GRAD.:    13.052 HEAT: -234.2183
 CYCLE:    63 TIME:   0.031 TIME LEFT:  2.00D  GRAD.:    11.160 HEAT: -234.4962
 CYCLE:    64 TIME:   0.059 TIME LEFT:  2.00D  GRAD.:    24.182 HEAT: -234.5381
 CYCLE:    65 TIME:   0.031 TIME LEFT:  2.00D  GRAD.:    13.492 HEAT: -234.8566
 CYCLE:    66 TIME:   0.113 TIME LEFT:  2.00D  GRAD.:    16.614 HEAT: -234.8862
 CYCLE:    67 TIME:   0.031 TIME LEFT:  2.00D  GRAD.:    10.591 HEAT: -234.9750
 CYCLE:    68 TIME:   0.055 TIME LEFT:  2.00D  GRAD.:    10.619 HEAT: -234.9890
 CYCLE:    69 TIME:   0.027 TIME LEFT:  2.00D  GRAD.:     2.736 HEAT: -235.0564
 CYCLE:    70 TIME:   0.031 TIME LEFT:  2.00D  GRAD.:     4.033 HEAT: -235.1039
 CYCLE:    71 TIME:   0.027 TIME LEFT:  2.00D  GRAD.:     4.659 HEAT: -235.1899
 CYCLE:    72 TIME:   0.031 TIME LEFT:  2.00D  GRAD.:     8.054 HEAT: -235.3107
 CYCLE:    73 TIME:   0.027 TIME LEFT:  2.00D  GRAD.:    14.755 HEAT: -235.3369
 CYCLE:    74 TIME:   0.027 TIME LEFT:  2.00D  GRAD.:     8.559 HEAT: -235.4233
 CYCLE:    75 TIME:   0.031 TIME LEFT:  2.00D  GRAD.:     7.973 HEAT: -235.4543
 CYCLE:    76 TIME:   0.027 TIME LEFT:  2.00D  GRAD.:     4.458 HEAT: -235.4922
 CYCLE:    77 TIME:   0.027 TIME LEFT:  2.00D  GRAD.:     6.676 HEAT: -235.4980
 CYCLE:    78 TIME:   0.031 TIME LEFT:  2.00D  GRAD.:     4.674 HEAT: -235.5183
 CYCLE:    79 TIME:   0.027 TIME LEFT:  2.00D  GRAD.:     6.302 HEAT: -235.5362
 CYCLE:    80 TIME:   0.027 TIME LEFT:  2.00D  GRAD.:     3.754 HEAT: -235.5513
 CYCLE:    81 TIME:   0.027 TIME LEFT:  2.00D  GRAD.:     3.690 HEAT: -235.5706
 CYCLE:    82 TIME:   0.031 TIME LEFT:  2.00D  GRAD.:     3.430 HEAT: -235.6124
 CYCLE:    83 TIME:   0.027 TIME LEFT:  2.00D  GRAD.:     3.728 HEAT: -235.6674
 CYCLE:    84 TIME:   0.027 TIME LEFT:  2.00D  GRAD.:     2.450 HEAT: -235.6871
 CYCLE:    85 TIME:   0.035 TIME LEFT:  2.00D  GRAD.:     2.946 HEAT: -235.7004
 CYCLE:    86 TIME:   0.031 TIME LEFT:  2.00D  GRAD.:     2.441 HEAT: -235.7111
 CYCLE:    87 TIME:   0.027 TIME LEFT:  2.00D  GRAD.:     2.401 HEAT: -235.7198
 CYCLE:    88 TIME:   0.031 TIME LEFT:  2.00D  GRAD.:     2.330 HEAT: -235.7295
 CYCLE:    89 TIME:   0.031 TIME LEFT:  2.00D  GRAD.:     3.592 HEAT: -235.7446
 CYCLE:    90 TIME:   0.027 TIME LEFT:  2.00D  GRAD.:     3.531 HEAT: -235.7634
 CYCLE:    91 TIME:   0.059 TIME LEFT:  2.00D  GRAD.:     7.040 HEAT: -235.8198
 CYCLE:    92 TIME:   0.031 TIME LEFT:  2.00D  GRAD.:     7.131 HEAT: -235.8599
 CYCLE:    93 TIME:   0.059 TIME LEFT:  2.00D  GRAD.:     5.867 HEAT: -235.9134
 CYCLE:    94 TIME:   0.031 TIME LEFT:  2.00D  GRAD.:     4.119 HEAT: -235.9503
 CYCLE:    95 TIME:   0.027 TIME LEFT:  2.00D  GRAD.:     8.437 HEAT: -235.9628
 CYCLE:    96 TIME:   0.031 TIME LEFT:  2.00D  GRAD.:     4.554 HEAT: -236.0216
 CYCLE:    97 TIME:   0.031 TIME LEFT:  2.00D  GRAD.:     3.768 HEAT: -236.0672
 CYCLE:    98 TIME:   0.031 TIME LEFT:  2.00D  GRAD.:     4.642 HEAT: -236.1099
 CYCLE:    99 TIME:   0.027 TIME LEFT:  2.00D  GRAD.:     2.728 HEAT: -236.1297
 CYCLE:   100 TIME:   0.055 TIME LEFT:  2.00D  GRAD.:     3.436 HEAT: -236.1437
 CYCLE:   101 TIME:   0.031 TIME LEFT:  2.00D  GRAD.:     2.433 HEAT: -236.1514
 CYCLE:   102 TIME:   0.027 TIME LEFT:  2.00D  GRAD.:     2.185 HEAT: -236.1577
 CYCLE:   103 TIME:   0.031 TIME LEFT:  2.00D  GRAD.:     3.336 HEAT: -236.1659
 CYCLE:   104 TIME:   0.027 TIME LEFT:  2.00D  GRAD.:     3.318 HEAT: -236.1701
 CYCLE:   105 TIME:   0.031 TIME LEFT:  2.00D  GRAD.:     1.915 HEAT: -236.1782
 CYCLE:   106 TIME:   0.059 TIME LEFT:  2.00D  GRAD.:     2.524 HEAT: -236.1826
 CYCLE:   107 TIME:   0.031 TIME LEFT:  2.00D  GRAD.:     1.555 HEAT: -236.1871
 CYCLE:   108 TIME:   0.031 TIME LEFT:  2.00D  GRAD.:     1.344 HEAT: -236.1905
 CYCLE:   109 TIME:   0.031 TIME LEFT:  2.00D  GRAD.:     1.189 HEAT: -236.1945
 CYCLE:   110 TIME:   0.027 TIME LEFT:  2.00D  GRAD.:     0.989 HEAT: -236.1977

     GRADIENT =  0.98916  IS LESS THAN CUTOFF =  1.00000



 -------------------------------------------------------------------------------
 EF PM7 XYZ HESSIAN QUINTET UHF
 1008_M_2_5



     GEOMETRY OPTIMISED USING EIGENVECTOR FOLLOWING (EF).     
     SCF FIELD WAS ACHIEVED                                   


                              PM7 CALCULATION
                                                       MOPAC2016 (Version: 16.299L)
                                                       Thu Nov 10 16:01:31 2016
                                                       No. of days remaining = 350




          FINAL HEAT OF FORMATION =       -236.19762 KCAL/MOL =    -988.25083 KJ/MOL


          TOTAL ENERGY            =      -3516.14675 EV
          ELECTRONIC ENERGY       =     -23333.30653 EV  POINT GROUP:     C2  
          CORE-CORE REPULSION     =      19817.15978 EV
          COSMO AREA              =        277.90 SQUARE ANGSTROMS
          COSMO VOLUME            =        315.46 CUBIC ANGSTROMS

          GRADIENT NORM           =          0.98916
          IONIZATION POTENTIAL    =          7.496054 EV
          ALPHA SOMO LUMO (EV)    =         -7.496 -0.418
          BETA  SOMO LUMO (EV)    =         -9.177 -0.903
          NO. OF ALPHA ELECTRONS  =         53
          NO. OF BETA  ELECTRONS  =         49
          MOLECULAR WEIGHT        =        316.6196

          MOLECULAR DIMENSIONS (Angstroms)

            Atom       Atom       Distance
            H    25    H    11     9.79729
            H    12    H    26     8.28397
            H    13    O    32     5.46418


          SCF CALCULATIONS        =        143
 
          WALL-CLOCK TIME         =          4.504 SECONDS
          COMPUTATION TIME        =         17.678 SECONDS




   ATOM   CHEMICAL          X               Y               Z
  NUMBER   SYMBOL      (ANGSTROMS)     (ANGSTROMS)     (ANGSTROMS)
 
     1      Mn         -0.00056194  *   0.00045794  *   0.44306474  *
     2       O         -0.00675502  *   1.95779276  *   0.85741647  *
     3       C          0.76431575  *   2.63351185  *   0.12083067  *
     4       C          0.34184717  *   4.04956164  *  -0.13700459  *
     5       C          1.98458765  *   2.15094220  *  -0.41233077  *
     6       C          2.40408191  *   0.84641569  *  -0.23015038  *
     7       O          1.84904076  *  -0.07304058  *   0.52789926  *
     8       C          3.68889130  *   0.34973326  *  -0.81996506  *
     9       H         -0.54747324  *   4.31900034  *   0.45342386  *
    10       H          0.07838449  *   4.17642240  *  -1.19917438  *
    11       H          1.14046028  *   4.76367162  *   0.09956628  *
    12       H          4.51377461  *   1.05623284  *  -0.66923989  *
    13       H          3.56296361  *   0.19632226  *  -1.90534820  *
    14       H          3.98331010  *  -0.62257994  *  -0.39254201  *
    15       H          2.58269203  *   2.82123191  *  -1.01884038  *
    16       O          0.00885390  *  -1.95708996  *   0.85616156  *
    17       C         -0.76220415  *  -2.63396725  *   0.12073750  *
    18       C         -0.33844809  *  -4.04985970  *  -0.13578685  *
    19       C         -1.98286014  *  -2.15217177  *  -0.41273774  *
    20       C         -2.40413416  *  -0.84826064  *  -0.22980276  *
    21       O         -1.85025314  *   0.07119075  *   0.52974563  *
    22       C         -3.68939645  *  -0.35249455  *  -0.81947561  *
    23       H          0.54518048  *  -4.32088439  *   0.46213145  *
    24       H         -0.06515056  *  -4.17408225  *  -1.19574047  *
    25       H         -1.13965575  *  -4.76459928  *   0.08989282  *
    26       H         -4.51148986  *  -1.06417583  *  -0.67839576  *
    27       H         -3.56005744  *  -0.18819523  *  -1.90311266  *
    28       H         -3.98962057  *   0.61437655  *  -0.38380493  *
    29       H         -2.57910613  *  -2.82230567  *  -1.02084189  *
    30      Cl         -0.00064851  *  -0.00051958  *  -1.76175020  *
    31       C         -0.00092655  *   0.00102270  *   2.41877010  *
    32       O         -0.00124205  *   0.00184655  *   3.55574096  *

                             CARTESIAN COORDINATES

   1   Mn       -0.000561935     0.000457938     0.443064739
   2    O       -0.006755017     1.957792760     0.857416474
   3    C        0.764315754     2.633511855     0.120830669
   4    C        0.341847173     4.049561635    -0.137004590
   5    C        1.984587654     2.150942198    -0.412330774
   6    C        2.404081910     0.846415691    -0.230150380
   7    O        1.849040762    -0.073040581     0.527899264
   8    C        3.688891298     0.349733264    -0.819965056
   9    H       -0.547473237     4.319000341     0.453423861
  10    H        0.078384493     4.176422397    -1.199174380
  11    H        1.140460276     4.763671621     0.099566275
  12    H        4.513774608     1.056232844    -0.669239885
  13    H        3.562963607     0.196322258    -1.905348202
  14    H        3.983310104    -0.622579938    -0.392542014
  15    H        2.582692027     2.821231912    -1.018840378
  16    O        0.008853898    -1.957089956     0.856161557
  17    C       -0.762204150    -2.633967246     0.120737505
  18    C       -0.338448092    -4.049859696    -0.135786855
  19    C       -1.982860140    -2.152171775    -0.412737739
  20    C       -2.404134161    -0.848260642    -0.229802758
  21    O       -1.850253143     0.071190752     0.529745626
  22    C       -3.689396453    -0.352494553    -0.819475612
  23    H        0.545180477    -4.320884394     0.462131454
  24    H       -0.065150562    -4.174082249    -1.195740467
  25    H       -1.139655751    -4.764599285     0.089892818
  26    H       -4.511489862    -1.064175831    -0.678395760
  27    H       -3.560057445    -0.188195230    -1.903112660
  28    H       -3.989620569     0.614376554    -0.383804927
  29    H       -2.579106135    -2.822305666    -1.020841887
  30   Cl       -0.000648507    -0.000519583    -1.761750198
  31    C       -0.000926554     0.001022700     2.418770100
  32    O       -0.001242049     0.001846551     3.555740955


           Empirical Formula: C11 H14 O5 Mn Cl  =    32 atoms

    Hessian matrix from geometry optimization
 1069.0977
  -88.0293  617.3444
   -6.7476   -1.0180 1048.5265
 -108.9774  123.2506    5.8954  992.8459
   -4.5060 -200.5163  -59.7775  547.2890  948.4228
   14.3969  -86.8651  -61.9787 -440.5127 -268.5281  557.6009
   49.6548  -88.4218   23.4431 -784.4182 -445.7996  357.2385 1778.0732
  -29.5178 -110.8052  -15.1643 -552.5567 -524.6258  298.3065  158.9568 1426.3124
  -37.3010   83.8920   -9.0443  431.4462  285.7078 -441.6873 -551.4773 -340.5953  882.8030
  -81.8349   -5.2212   -9.1109  -15.9411  -41.4107   25.0065 -244.7492   75.5558  -23.2431  854.3524
   21.8074  -48.0846   20.2388  -58.3928 -144.4311   54.7026   63.9517 -390.8869   15.6999   28.9100
  966.2915
   20.4195   -0.8042  -86.2352   90.1679  145.5547 -117.3030  -99.3819   -1.8471 -180.2640   -4.4872
  -88.6604  857.4019
  -96.5684  -20.7010   -6.6269 -236.0572 -128.7504  116.0670 -579.4114  260.4070   72.7821  -75.6766
   14.8005  -20.3183 1375.2515
   -2.0623  -53.9125   42.4289  -42.1763   74.6870   -2.9813   20.0475 -189.9376   -6.0817   61.5944
  -66.2485   11.8268  -71.8241 1563.2555
   11.7239    7.6522  -57.1079   79.3436   36.7020   -8.8142  132.1086  -85.8950 -196.7368   12.1746
   -1.0263  -39.0384 -285.2648 -206.1198  546.4220
 -190.7564   14.6167  -20.5781   13.8780    6.8525  -10.3560  -38.0078   87.7393   37.7708  -73.5590
   -5.2301  -17.0378 -160.7126  241.0996  -50.5494 1220.6173
 -160.0327   66.1629  -16.4642  -34.1283  -61.5819   49.2572  308.4470  -49.5701 -125.0238   24.0685
  -25.3502   16.0761   70.2096 -773.0167   46.5407    5.9382 1911.3189
  116.5617  -34.9939  -15.1564  -19.3884   -3.4325    8.1439  -21.6303   25.2444   32.6824  -14.3403
   -9.9495  -57.9900  -19.0895   31.6134 -146.2611 -240.2909 -382.1415  710.0536
 -474.0741   23.7507   -3.6937   36.0891   25.4069  -23.2172  -85.2775    1.5362   60.9459   33.5571
   -1.0181    3.1988   57.0384  -92.7130   33.8807 -264.7768 -276.0619  117.1453 1073.5898
  215.7465 -134.2613   15.2558    4.3365   16.7005    2.9100  -52.5718   -1.6916    9.2924   47.3114
   23.6620    7.2996  -63.2198 -237.8056  106.2557 -380.7878 -702.7603  346.3936  278.9175  949.4813
  -85.2183   25.1552  -70.3643   -0.9804   -3.5441   15.4644   25.4779   -8.2222   -1.2957   -5.0905
    8.1207    7.9127   23.2555   79.6474  -29.5758  164.7573  276.8500 -302.4839 -127.4140 -361.0570
  422.6857
  -37.1782   -2.5619    2.0850   -1.0575   15.9777    2.7827   -9.5252    0.6118  -22.9840  -28.6904
   -8.0135    9.0286  -76.6756  107.5457   -8.5614 -371.9134   98.6559  -10.1144 -182.0916 -102.4310
   46.8498 1034.2115
   -2.2266  -73.3111  -10.9458   32.8396   23.4221   -8.9272   -3.1181  -64.3967    5.8573   88.9954
   -5.3602  -13.9221   88.2416  -70.8353   -3.0001   83.2572 -194.4930  -38.7269  -41.5693  -20.0757
   16.6853   -9.2781  790.6983
    5.5854    6.3371  -70.6269   36.6304   37.2006  -27.1301  -12.1170  -53.0448  -22.7124   12.9850
   35.1057  -22.8469  -32.4625   -9.7315  -10.2142   31.8849  -11.4865 -193.5784   65.2824   36.2054
  -73.4102  -33.2730    1.1796  719.8993
   42.0782   -7.8682    6.7895   63.7511   22.4691  -35.1312  -26.6193   78.5026   -2.0097 -442.9359
   38.9055   84.8822   31.2805  -39.3077  -25.1074   -6.2631   -6.3585   19.0119  -28.8416  -44.7368
   12.0812   36.7299  -29.2120  -30.1181  703.6135
   -9.2917    2.6012   -3.2901    9.1605   24.3534   17.1339   62.7106  -44.8545   -1.5878   36.7138
  -99.7073  -37.3357  -23.5357    1.9686    6.3714   -0.1886   26.8537   -2.2896   -5.0975   -4.5312
    3.7922    5.5227    3.7924    6.5533 -129.5871  217.5055
  -15.9507    1.2284   -1.8806  -24.8988  -20.5090   11.0323   17.0040  -10.4722   11.5319   52.4540
  -30.7713 -133.7874   10.8667   -9.3443    4.3474    9.3941   -1.3544    0.5028   16.2554    7.0681
   -0.1745  -13.1487   -6.9377   23.3187 -147.7451   39.5077  240.0336
  -23.8364    6.0118   -5.6633    4.6674   -3.2652    3.7877   40.5263    1.9531  -26.9175 -130.5038
  -29.4041   66.8051   -2.7055    9.0273   -0.3240   23.1067  -17.4385   -3.1414   13.0396   -7.1200
  -12.0453   10.1113   -4.7075  -11.7820   40.6955   -7.0449   19.1461  220.6859
    0.3177   20.2027  -15.3077   49.0474   38.7498  -27.3298  -51.3964  -51.4933   45.3424  -35.8411
 -102.7425  125.6193    2.2050   18.5640  -14.0741   -5.5983  -15.6214  -16.8402    7.7379  -10.9560
   -7.3128  -11.6720   -1.9775  -10.2479   -3.9122    5.9722  -10.3362   38.9809  242.7527
   -1.4423  -16.8064   24.7040  -60.8365  -61.4174   79.7545   69.1188   82.8557  -13.4453   40.7994
  131.2503 -459.2828    1.1308  -23.5887   13.8604  -37.1662  -21.8549   72.0192   -4.6824   23.0247
    0.2512   12.0208  -18.8574  -15.1102   13.2283   -5.6221  -22.3076  -33.2921 -143.3211  676.6124
  -23.1514   17.1657   13.9119  -19.4747  -14.1345   17.1485   89.8931  -14.7177   23.3097 -151.1149
 -131.8497 -110.7637   15.6085   13.1017   14.3200   38.2581   13.6830   -1.0484  -13.1872  -39.7911
   -1.2594   -1.1614   -8.9687  -16.3054  -50.3411   13.3713   38.2529   -2.5521   -1.4375  -20.4803
  306.7795
    8.4756   22.3759   15.4365  -31.3342   -4.6598   38.1993   69.6499  -39.7700  -20.3668 -124.1757
 -211.5977 -122.8449    9.6302  -13.4470   24.3413    6.0978   13.2543   -4.8714  -13.5287  -26.2355
   -3.8038    3.4739  -29.1940    2.4538  -46.0353   33.9986   43.4768    0.8329   12.0995  -16.9848
  161.5990  384.8915
    8.9481   24.9361   14.9055  -16.3812  -14.0479   22.1637   46.9193  -17.5359   60.8717 -103.8061
 -158.3323 -234.5405   10.8032   -6.2581    1.4908    3.5568  -20.3689    5.3877   28.3876   30.4224
   -3.4022  -21.8603  -18.2801  -29.8870  -13.2669   24.3466   47.7054  -15.0010  -10.1447   23.8795
  139.4395  180.7688  402.2511
   27.4253   -2.9086    0.3875   -7.7992    8.1692    7.4491    2.2066    9.2035    2.6213  -23.6227
    0.7099   -2.2783   -7.6660   10.6372    8.3826  -48.9117   33.2362   13.8400    0.4378    0.9715
   15.6651 -202.1618 -176.3528  -22.3630   25.4283   -1.9854   -6.0510   -1.8033   -3.0495   13.7503
    4.0048   -1.2898    2.5840  342.3867
   17.9199    1.6814    1.0600  -18.6467   -2.9301   -8.3306    6.9401   25.8260   -0.2467  -10.2839
    1.0760    5.8080  -12.0702    0.7505    5.3186  -19.1691   60.7544    6.3779   21.3255   14.4734
   11.6028 -193.2308 -293.7888   14.9647  -15.0580   -4.4859   12.0157  -17.1638    4.9592  -11.4603
   -0.1463    7.9547    7.1483  181.4561  406.1247
    4.7122   -2.0521   -2.0175    3.9258    4.4097    1.6234    4.1332    7.7095    2.3073    2.9538
    9.8708  -17.5773   -3.0565    9.2928   -0.3244   16.7586   11.8820    8.1540  -11.0566  -13.0091
    2.4807  -13.0126  -11.0817  -75.7328   22.3306   -2.2391  -18.3953   -4.5246   -8.8183   26.9681
  -23.9616  -14.0605  -14.3598   -1.9389    3.3219  179.5796
    9.4172    1.7411    6.4889  -14.1192  -20.4747    8.1377   15.0291   13.4492   -8.6603    5.1849
    5.7176  -13.0159   10.3229  -24.7046   -8.7878  -25.5148   20.4517   40.4241    8.2676    7.4429
  -11.3345 -101.0385   -0.1723   -7.8075    5.4483    0.1940  -10.9880   -5.9979    0.4224    8.7248
  -16.3625   -4.7691  -13.6042   11.0338   10.9398   -9.8288  171.5511
   -2.3464    2.5522    8.6577  -37.7714  -13.9411    4.3989    4.0701   16.7840    6.4694   10.8899
   -0.1326   -4.1319  -17.3696   15.1817   15.1900   43.4184    5.8285   -1.8412   -4.0903   -4.8133
    8.4881   16.9165 -131.7561 -123.1638  -21.2415    1.9505   -4.9589   -1.4709   -5.2989    7.0481
  -22.9575   -2.3221   14.2254   -2.4289   -9.4116   11.3543   -6.8279  268.1262
   20.1913   13.6910   21.5062  -14.4853  -13.8768   18.7522  -34.0492   32.9437   35.0655  -31.8419
   -2.9762  -14.0067   15.8815   17.0871    3.2918   60.3178  -32.0491   15.9567   -8.9718    9.1556
   32.2770  -28.4943 -124.9169 -353.6590   21.7864   -5.7571  -14.0577    7.1353  -15.7941   39.8514
   -2.5403   -6.4090   -7.7673    0.8070  -25.4453   19.7181    0.6995  177.3079  604.9968
  -10.1693   -9.3859   -1.0725   10.6362   -0.7668   -2.1755   -5.1657   -7.4831   -3.6890   18.2649
   16.2493   29.8818    4.3713  -34.4724   10.2475  -21.0319   44.5940  -12.0749   19.5950  -12.2067
   19.4590 -107.2143   71.3156  -64.7108   33.0561   -4.1170   -7.7339  -12.9505    1.4323  -14.6682
  -14.8476  -21.5462  -11.9826   13.4042  -17.7084    2.6218    2.1879  -25.4025   -0.6841  220.3747
   12.0510   19.4879   -5.9302  -37.4840  -20.0344    8.5088   -7.3636   17.3466   -2.5010  -30.1667
  -15.9503  -41.0983    4.7641   15.2634  -17.0351   29.4698  -41.7833   -1.9014    9.5782   52.3768
  -28.2515   39.2465 -213.5735  137.8073  -61.5011   15.0907   24.0257    3.0665   -5.2247   25.7019
   20.6945   30.4940    4.2043   12.1536   18.5173   -0.8582   -3.7674   22.8831   20.1882  -98.4997
  355.1420
   -0.6421   -9.3183    8.7798   37.8941   19.7962   -7.3175   13.9281  -16.8854   15.8737   15.2798
  -15.7405    0.8315  -11.9567  -21.7623   14.5638  -17.3946    2.1776   45.3428   12.3745  -26.9159
   26.3864  -82.4989  152.0953 -233.2125   26.5625   -2.5665    2.8460  -18.1710  -12.3915  -12.1869
    7.6517  -12.8490   -7.4197    9.0093   -7.1812    2.4159   -6.0557    0.7933   -3.6722   83.9292
 -171.0290  362.8323
   -0.6186   12.7508  -11.2494   77.2043   33.5835  -27.5923  -51.6995  -18.3041   52.5415   15.8680
   25.4630    3.9529 -277.8762 -224.3214  101.4750   -4.8134  -28.5792   -4.5289   32.1910   40.1051
  -11.5710   -3.5089    3.4278   -8.1616   18.8836   -3.9606   -1.1387   -4.8499   -0.4813  -17.0481
  -18.2998   -7.2251    0.5457   -1.1751    7.6981   -3.7889   -0.5268  -11.3225   -8.8213    1.6640
  -10.1065    8.8454  370.7570
   17.3136    4.0545  -23.9563   45.5392   26.7704  -13.8334   -8.8087    7.0950   16.0004   18.1136
   10.5547  -25.4759 -242.4151 -267.9834  119.0268  -17.3294  -58.7844   34.1910   35.5333   67.5682
  -21.9893   -0.4681  -19.1461   -9.7034  -13.7899   -0.3659    1.2979   -7.8014   -2.8272   10.6762
   -6.5894    2.4617   10.3665    4.8893   16.9345   -5.5096  -15.6013    5.2765   14.0092   -2.9163
   11.6456   -0.9911  190.7644  400.2547
    0.9880    1.6436   23.6886    5.6705  -11.7352    8.2632   34.7736   26.2552   -2.3742    0.9640
   -8.3381  -14.0003   94.7342   91.2619 -160.4147    3.4294   70.7393    1.0629  -28.4742  -22.1349
   24.9201  -17.0324  -14.8745  -20.2621   13.5614    6.8138    1.0167  -12.1794   -4.0589   33.5776
  -12.0335   -6.8889   -0.3943   -3.5770   -2.1917    0.3568    4.5430   -4.0735   17.6656    5.9756
    0.8388    8.0209 -151.0380 -162.7037  274.4483
 -126.2023  138.9785  -19.2726  171.0171   27.1657   41.5957 -122.6886 -121.5266   -0.8379   -5.2900
  -47.0942  -26.7543  -20.7252  -16.4061   18.4216   15.7200    4.6045   19.9993   22.9376  -27.2133
   23.1396  -14.4144  -34.4208    7.2080  -22.9515   -9.3580   14.2374  -19.6577   -2.2359  -11.6773
   -8.4954   18.3671   32.1359   -0.0222   14.4482    6.8239    7.0457    3.0185  -20.3982   -3.8758
    2.9008   10.8735   17.8324   -3.5808  -34.4963  889.8050
    3.6867 -186.8278   48.7601   55.7043   42.3073   48.7753  -73.0066  -52.8966   -3.2449  -46.3994
  -13.1812  -29.4573   23.8980  -13.0707    4.0552    5.9795   -7.2865   14.2496  -33.1744    6.4839
   26.4257  -18.3767  -21.7382  -45.4384   -2.6683   -1.1012    2.6319   -3.6631    1.9492  -23.9239
   22.3264   30.4113   37.9361   13.1873   20.2582    9.1469   11.1319    1.6137   22.8106   -0.5357
    2.0750   12.0397   11.5479  -12.5486  -28.6112  482.3554  918.3912
  -19.3513   95.0614  -62.6452  -23.5922  -42.4462  -16.5306   27.2198    6.8139  -21.4073  -13.0798
  -23.6604   13.0508    3.5132   -2.3039    3.7105  -11.7197   26.0069   -0.4815  -29.1120  -18.7124
   19.6015   34.1885   -3.3645  -35.4507   21.3512   12.9510  -12.5363   -7.5381   25.1198   -7.1999
    6.8563    5.0194    8.0704   -1.9721  -13.2245    7.5903   -0.7667   -3.0993    5.1496    2.5135
  -12.2607    6.9104    0.6252   -9.2782    5.6630  427.5004  273.4090  554.3323
   50.7786 -150.6806  -16.9770 -168.7812  -54.5997    5.2438  215.0956  148.4320    2.9186    8.0332
   28.4547    2.3613  -45.9680    8.4948    3.9525  -14.0976   37.3746  -33.0992    2.3731   18.6496
   -0.0672    3.8783  -33.7133   -6.1092   10.8275    0.5021   -7.8461   10.2865    7.8855   22.2714
    9.3452   13.5461  -23.4771   23.1733   29.6643    6.7533   -8.2638    5.9637   26.0656    8.6822
   19.9453   -3.3073   17.4118   31.5211  -13.1029 -689.3938 -350.6675 -316.2277 1655.0909
   -4.9174 -118.9173   19.8690 -117.6997  -32.9269  -13.8009   80.3108   94.8566  -20.3921   19.5511
   33.7013   -6.0272   48.8292   17.3124  -11.7285  -22.6057   52.0376   -1.6773   13.0423  -14.7330
  -10.4524   26.4856    0.6968  -15.8021   10.4352    3.6440   17.4509   10.5787    3.3061   17.3474
   -4.7270    4.1554   -7.9398   19.8893   -9.4421  -18.9935  -12.6882    1.2041  -12.7594    7.9689
   -9.4606  -17.3810    4.0509   19.5765   36.8630 -523.3388 -521.4657 -293.5662  147.2599 1424.9260
   56.9945  -80.7286   -2.4197  -29.9987    4.8758   -6.1776   -7.2152   19.4694  -23.0667  -31.4743
   32.1656   18.2271   33.6220  -20.3325    4.2475    6.1498   -4.0694    0.0082   17.7037   12.0044
   -2.8294  -16.5063   14.5710  -27.2287   16.4083   -3.3163  -11.2665    8.4170   16.7051   -1.1101
    7.0518   -5.3305  -13.7796   13.7953    4.2760    3.6086   -7.8682   10.6096   34.4705    3.1481
    0.0298    6.9876   16.5637   17.3488  -17.8254 -382.6620 -270.2590 -395.2714  493.0328  302.4824
  803.8143
  -96.3836   -0.8137    9.7716   25.0779   -1.4679  -16.2445    3.1596  -21.9293   19.3430   90.4658
  -11.0607  -38.9362    3.5103  -32.3863   15.8196  -16.7055  -27.2788  -13.8767    0.3417  -50.4017
   10.4627  -19.3882 -106.8022  -29.2213  -54.5678   27.9848   25.3051   28.1175  -25.3036   29.8875
   51.6563   18.7361   -1.3335   21.6846   17.1527    5.1848    0.5805    3.0736   10.2761   -8.1708
   -6.0945   -1.5910    8.6628    5.0215    1.6175  -22.0549  -91.6586  -43.2210 -210.1958  130.2126
   17.4294  871.4942
  -10.8439  -38.2521   -6.8514  -52.9302  -42.9050   -0.7060   72.3333   23.9718   -7.2267   35.3580
   -3.8668   -8.7440  -10.5205  -12.3206    0.9391    6.0852  -30.0282    2.2436  -13.2535    1.7033
   -4.5850   -4.5889  -51.1656    5.0086  -42.6452   36.1468   68.2517  -10.7232   -3.8618   -1.2846
   44.9356   15.3005  -14.5497   -1.6239   -4.2400  -16.4339  -16.6178   13.3940   14.3197  -10.6248
   18.9497  -30.0365  -12.8619   -9.2562   -7.5719  -45.7813 -150.6774  -85.5629   45.2650 -399.0757
   -2.5670   86.9862 1025.2014
  -14.6132   -0.6631  -95.5166    7.7824   11.8826    7.4856   -8.7239   19.3686   28.0471   21.7245
  -32.3370  130.4809  -14.0314    8.1154   10.9586   18.8975   19.5627  -10.8337   -5.2471  -18.5456
  -23.9047    8.0278   24.1464  -38.7469   11.8687  -19.4334   -4.4245    4.9130   35.1997  -20.0490
  -17.6863  -30.4001    0.3684  -11.7421  -12.0226  -10.3424  -18.1234   24.2916  -23.3801   18.4733
  -20.9220    3.0456    5.1857   -1.4693   16.6226  -61.9363 -127.1002 -113.1861   98.5036   13.3083
 -167.0106   48.6707   77.6646  813.5369
  -75.6735    3.4052   16.7080    0.6724   15.4777  -35.6766  -92.4649    1.8546    5.0935   28.5883
   15.0252   11.2180   54.9528   35.4104   -9.9924   52.3942  -13.9947   -8.4818   10.2474  -25.5015
    4.1691  -27.0296  -21.3883   28.6876    5.0430  -19.5939  -11.0017   -2.6537   15.7272    2.2638
  -33.0308  -22.6458   -8.0449   -8.4090  -11.8688  -16.1425    5.7207    4.3337  -17.9163   -8.1557
    9.3777  -23.0755   10.8074   -3.3828   -4.1059 -197.4121 -118.7416 -131.4218 -621.7663  206.6043
  -76.8682  -74.7162   42.0242  -40.3007 1391.9065
   29.1437  -33.6448   -2.8136   -6.6691  -31.1139   -3.2724  -17.9335   30.2496   23.9918  -89.6716
  -47.8680  -17.8966   57.6445   -0.9847  -20.9808    4.8783   -1.7100   -7.3315  -62.5773  -36.0120
    7.4834    1.7912    6.8935  -15.0761   70.8254   -4.0205  -16.0331   -0.7706    7.7211   -2.5382
   31.0337   33.5498   16.1010   27.8729    8.5101    6.1853    7.7959  -15.0470   -4.1386    2.5496
  -19.1735    9.9006    1.7255   -2.4304    4.6173  -74.9278   50.3412  -17.8695  103.8917 -142.9157
   31.0396   58.3451  -75.7749  -12.4901 -119.5011 1433.6295
  -22.4429  -26.0852  -49.1469   -4.5398    3.3780   -4.6627   -8.4781  -20.6630   15.1262   15.5968
   14.3401   33.6432   -9.2028    0.4117  -28.5414    0.1851    5.3262   -4.6836   -1.9575    1.8971
   -8.5349   11.0757   -1.0376   32.6307  -22.3357    1.6879    3.8671    1.5965   12.9686  -38.4542
  -10.6719  -16.9452  -11.0292  -10.7503   -3.3468   -0.4475    3.7810    5.1233   -7.5003   -5.8544
    9.5507   -4.5172   -0.9657   -7.9980  -26.0426 -106.2652  -33.0432  -64.8950 -146.9711  100.9077
 -174.1270  -15.7313    2.3624  -48.0715  323.2888  228.6498  589.5174
 -140.7707   17.2643  -25.0485   31.8864    2.5321   -6.7933  -53.1286   10.5675   -1.0757  -36.6954
   -1.2905  -23.0289   54.1686  -13.1600   -1.2819   87.9416   73.4024  -17.1638    0.5341  -98.2143
   -2.6906   -5.6159  -31.3598   -6.0453   53.5130  -25.9673  -17.3828   -7.9727   -6.5932   22.1780
    8.0933   15.4686    0.4336   24.9239   22.8364  -10.6164   -5.4762   20.7070   19.6780   20.9101
   -0.5152   -4.6873   30.6726   -6.1017   44.5888   40.4203    0.5169   -5.0244  -33.2562  108.2403
   -9.4555  -24.5735  -25.8781  -20.4067 -230.7192  188.9586   36.3395 1221.4261
 -184.7764   41.6749  -36.3722    5.3821    5.9416    0.2582   13.3152   29.6871   -4.3450  -78.2388
  -25.5588   -0.0173   17.0781  -16.7270   -9.1869  107.2910  -15.0031   23.3008   18.1576  -62.1556
  -44.3342  -18.4271   -1.6086  -18.1143   54.2419  -41.2250  -15.4904   26.6352    3.5141   18.3394
   52.6531   30.7253   33.7124   10.1063    5.3355    5.8720   -5.6006   23.6089   53.4764   16.8731
    9.1155    8.8804   30.4742   14.3886    3.9048   31.0841   -6.8724   -5.3373  214.9101 -101.0055
   78.5579   34.1363   19.2552   -5.0374   62.1198 -705.7086 -115.1357   49.8841 1705.8654
  -99.8534   54.7839  -14.7885   -5.0940  -27.8393   -4.1281   13.9736   21.9544    1.3296   -9.8135
   -1.6362  -10.6497   20.6256    6.6882   -8.9877   19.4294  -41.8626  -17.8120   24.3792   11.2310
  -30.3806   13.8018    0.9127   19.4123   11.4195  -11.3176    2.3558    9.5556   -7.7342   14.2223
    3.1248   -3.9202    5.1344  -11.3659  -16.9663   -3.5881   12.8634   -0.8936    7.2762   -4.2800
   22.9452  -18.1082  -24.3455  -10.2289   22.3328   30.3411  -11.6111   14.7094   39.9789  -40.3787
   25.1226  -16.9487   -5.7468  -27.2182    9.7595  -85.9798 -176.2141  250.0056  458.9333  757.4042
 -477.8740   29.5433   46.7164   18.2363  -28.1602   15.6556   26.2621   28.2439  -15.0407   38.7542
    8.5573  -13.0173    7.1320  -23.6509    3.3043  -15.6100   32.9534  -11.9213   26.4360    6.0127
   47.6841   16.2015   26.7242    1.1621    8.8047   21.1347   -1.9442  -12.3197   -1.5042    2.7099
  -29.9794  -14.4041  -21.0958   12.8928   -4.4946   -8.1222   14.1314  -32.5456  -40.2413    0.7280
  -17.7479   -9.5995  -11.1526    4.4944  -20.1955   26.1923   16.0640   31.8903  -60.5951   -4.3248
  -76.4841  -18.9795    1.3177    2.6836   81.5201  -71.4497   -0.5378 -307.2936 -176.0704 -147.0761
 1032.2756
  184.9730 -140.6689    5.1447  -36.9484   19.6064   18.2557   54.9250    3.1759  -31.7804   29.6394
   13.6573    2.3498  -71.7486   -1.7089   24.6226 -112.4206  -69.4857    4.1442   36.7229  135.6208
   47.9287   -9.8637   19.9793   22.5219  -45.7376   28.1856   16.2453  -10.0394   -6.9664  -13.4277
  -30.4292    4.1312  -13.4221  -13.3475  -20.6390   -3.3172    3.1624  -26.3496  -57.4095  -25.4384
  -14.9791   10.9156   10.2075   37.9781  -44.7025  -31.0024   -6.2420   -4.0977  -23.0211   12.3986
  -12.7734   37.2622   22.3184  -13.5954  -21.2041 -182.6966  -67.1558 -356.3728 -623.0507 -365.2301
  202.3510  849.1177
   75.9340  -35.3966  -65.2852  -26.6016   -5.1971   18.8595   19.7621    1.3249  -26.9958   24.1059
    3.9039  -27.3421  -35.8814   23.9486   10.3202   -7.0077   37.8061   -9.6159  -54.7668  -55.9217
    2.8676   32.5032    9.1171   17.6495  -11.1592   10.0461   14.2401  -13.1759  -14.5718   14.1045
  -12.4731   -2.2720    7.1416    3.1100   -0.6725    0.4546   10.3275  -11.7253  -35.8612    4.7027
  -10.5187    6.9625   10.5315   18.9243   -9.6382   14.7531    1.5448   22.6834  -30.1780   17.0037
  -23.1526   17.7342   22.0716   -0.4213  -17.4734  -68.9640   -6.9224 -153.8227 -284.1199 -309.4422
  130.2021  358.8002  406.7514
  -37.9057    3.0255   15.8184  -46.8302  -36.3329   11.9296   49.5574   22.1288  -24.3199  -92.7112
  -49.3789   37.1378  -23.9500  -34.3863   -1.4610    1.7051   20.2081  -13.0985   -1.3837  -11.9726
  -47.3981  -21.7727   -1.6606  -62.3398  -26.7487  -11.2280   18.5730    8.7753   17.6094  -50.4744
   59.1817   35.6434   17.2350   12.4030   24.4965    6.2793    6.5090   18.1123   24.7503    0.7971
   10.6586    2.7801   -6.5203   13.6586  -15.4985   14.2644   24.7374    6.1075   -8.0786  -27.4239
   14.3362  -45.0943   14.0970   21.0426  -77.3852   75.3188   19.4194 -421.3106   42.8356  -23.9449
 -111.6388  -30.5198  -38.5217 1030.3167
   22.1139  -67.8500    1.4642  -39.8398  -10.2878    2.0030  -49.7221  -11.3526  -11.5931  -85.0939
  -38.4233  -28.5257   -9.4207   -3.6823    8.2614  -11.8335  -35.0260   16.0527   38.0473   56.9202
  -40.0717  -19.9281   49.9348   34.9300    0.6307  -13.5734   -7.9477    9.9911    3.6873  -16.4907
  -16.0538    2.7786    6.0138  -25.0324    9.7875   -4.5491   19.3938   14.6088   -6.8793   11.7441
   12.6188    0.4822  -11.0893   -1.2475  -17.1424   66.1649   16.3108   -9.3539  -38.0363  -55.0252
    5.4036   74.2568  -51.7970   34.4739   84.1820  -99.7068   13.0793   89.5171 -163.4338   42.8060
 -104.8495  -38.7235  -32.9231   20.6097  799.9811
    9.5096  -10.3663  -74.5359  -36.7931   16.0356  -26.4213    2.9457    2.5567   -1.1971   14.9827
    4.5074  -55.8485   22.6223   -7.9449   24.3065   20.4547    2.2875    6.0450   -5.2317    1.9424
   20.4422   48.6717   -7.5040   96.4423  -30.7127    5.8697    1.8689    7.9947  -13.6841   11.7880
    7.4482   16.0888  -20.6443   -7.3155    6.7055   10.5581   -7.0602   -3.9163  -14.7505  -21.2037
   24.2606  -22.7556    9.9272    7.1613   -2.9062  -52.7828  -20.9259  -23.5447   32.1225   15.5604
   -4.4256   27.2818  -15.9967  -33.9989   27.4207   11.6952  -29.4279  -46.6738  -46.9740 -213.0318
  -48.1404   13.8219  -61.4852    3.0756   39.3971  720.6209
   20.6643   10.5741   -6.1868  -23.4330   -6.4531   -2.3357   21.4507   -0.0804  -11.4118   -6.4753
  -16.6551   -4.3125   19.5199   16.5496  -20.1819   36.2959   27.9619   12.2462    7.7782  -11.6157
    7.5960  -34.2396   25.1169   21.9318  -81.6708   51.4174   90.2022  -27.3242    9.1737  -34.3167
   76.4144   43.2621   15.1320    1.7163   17.5806  -25.8436   -5.4728   20.3986   10.2531   -6.5406
   35.4064  -23.7450  -19.6485   -4.2964    6.8972   48.5114   38.0842   29.4233   -1.6520   38.5979
    9.7525 -399.9112   37.0774  -98.5252    5.0407  -18.0782   14.5286  -12.6675  -40.2915   -9.1004
   11.5742  -40.1697  -10.4492   64.2242  -41.3390   10.7012  677.5432
    0.7805   -3.8211    1.9037  -19.3725  -10.7664  -11.2198    3.7886   15.2427   -0.7049    5.9536
   29.6551   12.7465  -13.3558   -1.0988    8.4692   -9.5935   -9.5701   -1.5868    7.6982    0.8504
    1.2822  -13.6393  -22.5551   -7.0331   44.8641   13.2246  -20.2290   11.8013   -0.6847   20.4615
    4.6816   -8.5903   -7.4758    4.7016   13.2160    8.1476   -0.4857    1.6564    0.0062   -5.5446
    0.7270    3.0864   -0.9694    3.3667   -4.2467   -0.6785    6.7383  -16.6929   58.3469  -26.6975
    0.3326   35.6429  -73.2186   50.3429  -18.8967    3.4054  -12.0509   15.6455   23.9472    7.6198
  -18.7609  -10.5129   -9.0612  -10.7162   15.7263    3.9757 -114.2716  207.4277
   10.4416    4.9764    5.0644  -26.0471  -16.4019    3.7481   21.7343   -5.6809  -13.8550   14.0533
  -43.2649    9.8080   12.1937    6.1762   -9.7635    4.3384    3.4864   -1.8095    2.1419   -7.8356
    3.3766  -29.4059   15.3994   -3.5402  -84.1644   22.0535   -2.6487   17.3576    5.0825  -92.1059
   29.0580   39.6652   20.8715    0.9715   11.8525  -20.0840   -8.6138   -7.0917    8.2637    5.1340
    5.5184    9.5557   -3.1478   -3.7318    2.2674   30.1521   43.0093   17.2050  -27.1228  -12.2385
    8.6003  -35.9963   15.5107 -136.9047  -12.0891   22.0023    1.0167   -0.8244    6.1922    7.2639
  -10.0146  -22.6076   -5.2016   20.4028   -1.5345    1.3519  144.0640  -33.0203  239.9781
   -6.8339   11.6789    0.0046   -3.6061    5.5248   -0.1134  -10.8312   -1.7565    8.7515   17.5337
  -11.4489    0.0718   12.3682   10.7812   -3.5793   -5.2201    2.2347    1.6976    9.6753    1.9142
    8.3153  -27.1086    7.0112    5.7568   -9.2184   10.3241  -27.1157   39.3324    5.2509  -47.0804
    3.5489    7.7967    7.1967    2.3287   22.2766   -1.5098   11.6256  -15.5739   -7.8733    5.2617
   10.7316   18.6290   -8.0895   -0.1868   -1.6785    5.3363    9.4643   -0.1350   38.3464   -5.1304
   29.5599 -129.2436  -36.5549  -70.4278   -6.5514   -8.9587    9.0409   13.2223   -5.3506    3.0543
   -0.5426  -11.2460   -2.5917    7.7362   -2.5637   19.3941   40.2595   -7.8368  -28.3511  214.9407
   -4.7219    7.5718   14.3105   -0.2606    2.8490  -12.6256   21.5573    5.2660  -22.6883   -8.3249
    7.0293  -36.9072   -1.2626    7.2645   -0.9004   11.8607   -6.9775   12.9727   10.4392    9.8518
    1.9496   -3.8814    4.8994   25.2965   -9.4270    8.2309    0.7121    0.5002    9.4624   -2.7759
    1.9992    8.5986   18.5711   -3.9596   -5.2275    4.4438    6.7297   -9.7700   14.8250   -6.1631
   16.1877   11.0051   -4.0468   -8.2974  -14.2631   36.1020   37.2966    8.6984  -43.1336  -41.5424
  -39.3939  -38.6866 -102.9272 -109.5621    8.0939    2.4561   22.3762    9.3522   -0.1634   20.3678
   -7.3388  -20.0928   -1.8160   -6.1713    8.7870   16.1595   -2.8766   -2.3538    7.1729   39.7212
  238.1539
  -16.2421    2.6740   19.0247   47.7834   47.5537  -16.7969  -50.8947  -20.7325  -16.2831  -27.2558
   11.3433  -25.4996  -28.5915   -9.5159   19.1157    7.9065  -54.0503   10.1992   51.0158   66.3199
    7.6893   -2.4846   28.3975   18.9333   19.2695  -21.3504  -75.1567   51.8422  -15.8201  -36.7860
  -33.1512  -15.1250  -20.0608  -10.1782   -7.6914   25.6396   21.7108   -1.4209   20.8030    0.1116
  -15.5920    5.3617   16.6439   13.2117  -18.6445   17.0286    7.1799   44.5794  -41.1712  -50.8508
    0.4889 -107.7059 -100.3560 -423.2173   54.9332   -9.2078   51.9021   43.4738    2.0878   35.0848
    1.6224   14.5737   13.2354  -34.7652   18.6277    4.2786    7.8576  -14.0084  -16.8500   41.0448
  140.5356  639.4930
    1.6255   12.7403  -15.0457  -20.5342    5.7651    7.7909  -19.9582   24.7358   -9.7721   18.0190
   52.5268   40.4538  -22.9436  -14.4590   -3.5365  -12.5469    0.6146   -0.9571   20.3951   42.3341
  -10.6881   -0.9475    9.4095   11.6360  111.7675  -18.6641  -62.0468    7.2256    9.7695   37.4102
  -61.1787  -75.1168  -32.1690   -7.8911    8.5199   20.7454    5.5658   23.7951    1.4153    3.7922
  -10.6114   -1.8520   14.8011   10.1094   -3.2035   -9.0133    1.8151   -1.9381   36.3114  -31.0951
  -30.8251 -211.3237 -184.1415   73.5320   40.4746   -4.3622    6.9013   13.1304  -20.0411   10.9685
   23.2901   -6.3918   -0.7716  -32.0338   27.9243  -22.4863  -60.7140    4.0319  -37.1545   -0.7286
    9.2351   60.9047  377.1137
   18.3849   20.0259  -15.9379  -10.9928   10.5123    9.9032    8.6952   28.0863    2.5705    0.1426
   31.7629   56.8451  -15.9879    3.0174   10.8698    3.0177    6.2334  -13.5976   17.7855   43.7257
   -5.6147   -0.0676   16.8142    2.0395   80.4004  -29.7643  -72.4946    6.4324   10.3893   11.4716
  -79.8203  -38.8567  -29.0505    1.7354    5.3465   17.2518   -1.7794    7.5459    4.3570    1.5003
   -7.1300    8.8963   14.2626   16.1915  -13.5901   -9.9254   17.1283  -20.5102   36.2183  -76.2872
   23.4329 -166.2389 -244.9787  104.5400    8.7546  -21.7162  -23.6132  -13.9663  -20.7245   13.1881
    9.8905   -5.6927  -12.7391  -11.5095    5.4657  -19.0399  -61.3216   29.4847  -44.9301  -10.7377
    9.3102   40.7697  220.7913  437.2897
   -4.4661  -13.8611   18.4668   -7.7494  -14.8733   -4.1207   20.4263  -15.2563   -9.9376    2.0433
   14.0294    5.6885   14.5374   21.8848   -9.1143  -12.0445  -43.3740    7.9192    9.0253   -0.8344
    3.5170  -21.5094   -5.3032  -13.1061  -11.4046   12.4854   27.9659   -6.6539  -11.4650  -23.4536
   24.4994   21.8170   -9.6935   -0.0782   -5.9235  -19.2647  -10.4141   -2.8972   -7.7066   -0.0567
   -4.6276  -24.6849  -12.4560   -2.1033    5.2746   13.4833    1.1063   22.4009  -72.1464   14.8108
   47.5175  104.4708  166.7517 -216.8265   12.2954  -12.1441    1.6577   24.6476   32.4168    7.7036
  -32.2032  -28.7815   -1.5237    7.0638   -0.3615  -26.6072   14.7960  -24.3443   49.5794   18.5708
    2.0716   12.3068 -135.1893 -188.3984  391.5605
   25.3299   13.5888   -0.7910   14.3889    1.5462  -10.1285   -2.3091    6.8989   15.1685   15.7260
   15.6355   -6.3945   20.8741   17.7908  -17.6642    4.7883  -10.2370    4.4064   24.0414   -2.3136
   16.8842   19.7602  -13.9716   14.4641    2.4198    4.8345    5.2402    6.3346    6.2998   23.6310
   -7.0552   -3.2369    1.2401   16.2221   -6.8337    7.6594    8.9002  -10.5357  -18.4388    2.1766
   -6.2683    8.3151    9.4493    5.9371    8.7898  -12.9035    8.6408    0.3736   -8.3799    1.7551
  -19.9644   -0.5091   11.1958   -9.9578   -3.6749    9.8161   -3.9813  -67.3797   -5.1769  -13.7332
   31.5555   31.0921   -8.9842 -224.5505 -179.9034   11.7846    3.5129    0.7678   -5.7151    2.7144
   -2.2735   -2.0489   -6.3406  -20.2068    6.1913  356.4485
   12.8319    1.9079    0.4459    9.3120   -3.8866   12.5617   36.7631    4.0204    4.9126   23.1274
   16.1421  -19.5956    2.9739   24.2913  -10.8303   13.0998   20.7468    9.1439   -3.0429  -37.5225
   12.6999   29.6182    3.6850   -2.8804   18.5284   13.9610   -6.6719   19.6030   -8.0455   36.5404
    1.5325   -4.5190    8.9719   -7.3133   12.7215   -0.5903   -1.7093    5.9201  -10.5285   15.4244
   16.4395    8.2445   -6.5567  -16.0957    3.8743  -50.1055  -17.8034   11.7939   11.4822   38.0797
  -20.9722    7.9897   28.3360   -3.8055   16.7383   25.4736    1.9074  -15.9411   51.0103  -10.1604
   28.4784    7.8569   -0.6898 -211.9341 -300.8424  -12.4616  -28.3126   -8.6010  -19.5016  -15.5352
   -2.1983   12.2347  -12.2855  -10.3572    4.7575  199.2657  408.0719
   -2.8158   -3.5263   -1.4815   -7.5083   -3.3376    5.5332   -8.6087   18.4864   -1.3473   14.2071
   14.3799   -4.7637   13.6664    7.0260    4.9987   16.5142   12.8513   -5.0942   -3.3797  -14.5585
    1.8084   -5.0936   -0.7594   10.2489   22.5036   -5.2485  -16.0698   -4.0004   -5.8274   13.9989
  -29.8657  -22.3145  -20.4893   -9.4459   -5.8341  -23.1597   -4.2811   -0.4292  -14.4314   -0.6121
   11.2707  -22.9487    1.3753   -4.1581    0.3557   -4.1361   -2.7430    2.3210    3.2433   -2.6319
   -1.4194    5.9073  -15.7049  -16.4988   -3.7694   -7.6620   -4.7160  -16.6442   11.7609   16.8219
    0.8001   -2.9961   -3.9348   13.9726   -0.5862  -71.6429  -26.1099    4.8339  -16.0545   -2.3620
    6.5441   29.7315   25.3220   17.7118  -16.3202    2.4291   -2.4918  182.8489
    8.0124    0.3230  -11.6432    7.6933   12.5087   -5.4961   -0.8972  -12.0992   13.5919    4.6419
  -18.6582   19.5255   -6.1772    8.4690   -5.6155   -4.1390   -3.7408  -19.4805   18.0288    2.8950
   -7.7420    1.9430   21.9271   12.9087   -5.1488    2.8144    4.9212    2.0630    5.7856  -17.7187
    3.9911    1.6344   13.2558    7.8294   -1.6577    3.5386   50.3559  -18.6199  -14.0563   12.1060
   -4.0738   11.3658   -7.4192    5.0957   -8.6699  -18.4873   -6.6240   -8.2594    8.6764    1.8710
   21.1806   -1.8056   -7.3365    6.2123    4.7191   -7.9867    4.3442   -7.0894   18.1650  -33.0526
   -0.9995   -7.4797    8.0944  -84.4558   -4.6006    8.3915    4.0947    2.5965   11.3724   -6.9160
    0.1069   -8.0212   -6.8579    6.9311    8.7025    7.0656    2.6448    9.9257  164.1782
   -9.4379    0.6957   -5.4381   21.0292   19.8764   -6.6824    2.9260   -5.2718  -12.7386  -13.0546
    5.6813   -9.6046   -4.2880  -14.1027    1.6543    0.8749    9.8856    4.9619  -17.8436  -12.8496
   17.8055   20.1153    5.5122   -6.6162   28.7895   -1.1341    6.4004   -3.0924   -5.4969    6.1337
   20.2938    3.8666  -11.3539    3.6593   19.9975    6.0352  -12.6140   21.1533   -3.1988   13.1750
    1.0878   -1.6670   22.2294    9.4826   11.1191  -32.8615  -15.2073    5.3629   22.3713   17.1683
   -5.6269  -11.2535    3.6388   -0.9233  -13.2853    2.1972  -24.6111   32.6249   15.0566    6.1351
    2.6869    4.8016  -15.6667    9.9445 -131.2504  120.4620   -8.4792   -3.7416    9.4450    8.2914
   -4.8868  -19.3075  -18.0637   -1.6049   -1.2985    6.8243    6.5026  -13.6336   -0.9111  257.7199
  -21.1123  -13.5766   18.8841    1.1189  -15.7018   14.0961   -9.7644    7.3363    9.5069  -31.7823
  -15.0026   -3.8963   18.6549   23.6433  -15.4491   10.6734  -55.4994    8.7722   42.3215   35.8170
  -39.3883  -39.9822   12.4615    3.2637   -6.9206    2.6781   -9.4089   -2.5858  -19.7223   11.7168
   14.2186    8.2841    6.2473   -2.6276   -6.8971  -23.5878   13.4893   -0.7063  -25.5178   -9.5605
   11.3934  -38.7068  -38.3345  -14.9240   -2.5751   10.2687   -6.7026    2.4339   -8.7627   -9.7165
    8.7472    3.4366   18.0538    3.0330   11.2091   -6.0081   51.2711  -51.0489    5.7629    0.3689
    5.0586  -15.7775   36.1628   46.7571  115.2524 -338.9055   -7.9199   -5.2154    0.1187   -5.1259
   19.4799   23.7492   13.4174    5.5755  -10.0679    4.3313    6.6155   11.0378   -9.0717 -158.2457
  567.8627
  -11.0910   -2.9250    3.0271   -0.9300    5.0799   -7.4428   -1.1645   -7.0991    4.9643    4.9686
   -7.8135  -16.9779   -6.8357    3.5096    1.7001    6.5952  -11.3536    9.3329    6.4771    0.2705
   -6.4947   14.8765   12.5627   16.8929  -14.8738   -2.5506   -0.2911    6.4396   -0.7695   -3.6784
  -10.7985   -1.9969    4.3721   -1.9548   16.1664    2.6716   10.5075   16.6235    8.5346   30.6235
   16.8202   -6.0283    1.6204   -2.0789   -7.4601    6.4748   -0.3409   -1.7194   -4.1100   -6.7704
    1.6785    3.6752   -1.0811  -22.5931   20.9060  -28.9680   -7.5053  -17.8389   41.5438   16.2006
    7.6864  -22.4647  -32.4228  -94.3695   73.7492   79.2573   20.7192    0.0597    5.0498   -5.7434
    4.9116   13.1992    3.6749   -6.1323    4.0108   15.4613  -15.3151   -3.2546   -3.3018  -24.2869
   -2.9221  215.8752
   -1.8887    9.4362    2.8697   12.9670   -0.4707    6.1435   35.0597   12.6181    0.2698  -14.8814
   -3.9456   31.5069  -13.5640  -12.1510    9.7260    2.6519   62.0913  -45.8239  -41.1017  -63.3038
   25.0563   23.9974   -5.0978  -37.9127   37.6425   -3.5442   -9.0821    0.5884    4.9272   -8.1646
   19.1997    8.6044    5.2839    4.4452   17.4765   -9.3412   -3.2743    0.2579    2.3114   12.9352
   15.3534    3.1272   11.6928    2.8374   -3.7574  -31.7799    0.6775    1.4077    8.4075   15.0314
   28.7775    6.3569   -9.2631   16.9936  -35.8076   47.1264  -13.5199   31.4949   -4.2735    9.7204
    8.9901   29.5476   35.2149   58.8801 -232.9078 -150.3185  -39.8042    8.9388  -13.4094   -5.4954
  -14.2768  -19.2394  -18.3359    8.7753    6.5202    3.1949   11.5941    7.3614   -3.1833   21.8239
  -16.9015 -101.3031  369.3649
  -13.4071   12.9043    8.4942    4.4191    1.9272   10.5903   12.9619   32.5127    3.3855   -0.2273
    4.7115   -4.3762   -7.0528  -16.5739    2.9333   -1.3938   23.0904  -23.0558   -2.6730  -35.0497
   18.7711   14.2720  -12.8631  -34.6251   27.7628   -4.9937   10.0753  -21.6031  -17.5732   17.0794
   11.7050   -9.8848  -24.2728   -1.0445   -3.1938  -16.7682  -15.3196    7.3546  -28.2820    5.6514
   -4.5760  -26.5752   15.8929   11.1010    6.9942  -14.9700   -5.4072    0.5684  -10.0999   20.7647
   24.8180  -11.0631    0.7469   -8.8498  -22.8167   30.1519   -3.0781   18.5584   17.9878   49.6888
   -1.6517   16.3142   28.3026   91.7549 -171.3011 -245.4819  -14.0926    2.1462    3.9980   13.1094
    6.0160  -11.2960  -10.4131   10.7394   -6.9631  -12.0034   12.4382    6.0617   13.2416   -7.5430
    5.6488  -90.9960  181.7360  368.9928
  -11.3961   15.7697    6.4103   15.6439    0.1441   -3.9274   28.0630    6.1657   -3.9296   28.4561
   20.6165    8.4372   -5.5016  -15.6177   10.4008   21.0315   16.1016    9.0250   16.7973   22.8787
  -13.3234  -18.8339   -2.5103  -14.0173  -33.5583    2.6312    3.8951   -4.1470   -2.1987  -19.2336
  -11.7016   -7.0467   -6.7772    4.7541    4.3716   -7.6035   -6.9694   21.0753   43.2912    0.2722
   17.6103   -9.6324   21.1389    8.0438   25.8592   55.3007   21.0993   11.2190  -40.9781   -7.9119
  -32.2679   -4.5991   10.2272   19.3085 -261.4271 -199.3568 -106.5000   27.8990   -0.0555    5.5305
   -3.9455  -13.7176   -0.7479    8.5303   24.0746   15.8043   36.8712   -7.9012    4.9376    5.0180
    0.3889    4.6197    2.8801   15.4409   -1.9793   -0.6349  -13.9607   -0.3302    4.1225  -16.7765
   10.1722    0.1732  -22.8923  -12.4031  365.8539
   13.9723    6.7616   14.2092   -2.9299  -13.7092    3.9852   49.3320    9.7915   -4.6548    5.5601
   13.6467   10.8830  -11.2853  -15.9725   12.5657  -13.2226   16.8434   -2.3181   19.1193   36.2341
   -6.7771    0.6018    7.9420   -9.6180  -15.9840    9.8494    7.5087    4.2356   -4.2692  -14.0176
   -1.7369    0.3559  -11.9107    6.1370    2.0741   -1.7391    8.7445    0.4132    7.9363   -8.6120
   11.5728   -3.5940    6.4094   18.8868   27.0933   39.1332   28.7886    8.3019   -6.8564   -2.5528
   -4.5802   -1.5768   -3.0216   42.7842 -237.2612 -241.8861 -116.5465  -13.7464  -61.4904  -46.2405
   18.9036   41.6476   11.0783   18.2290    5.2451   21.8420   15.7432   -2.9135    1.6657    4.0681
    0.5217  -24.8203    1.7654   12.6639  -12.6512    6.5091   -1.7742   -0.1510   -5.8152   -6.4923
   -5.0089   -0.9213   -1.6998   -2.7317  191.4605  410.2825
    6.6505    8.1114   17.6888   31.4541   26.7283    0.7087    8.4332  -21.5671  -10.6195   -8.1487
   10.6997   10.1403   16.1515    8.7293  -23.5416  -27.0767   11.3631   -0.2792   13.8417   10.5943
   10.6646    0.3384   20.0787    0.0079   17.3688   -6.3453   -1.6697    1.5155    6.5794   -0.0942
    6.4518    5.0605   -0.9976   11.5229    4.2503    5.3986    8.9585   -6.1387    3.2343   10.1258
  -11.2791    7.5333  -33.4988  -30.6224  -31.1688   21.3751   14.4011   24.1779  -26.5827  -30.8061
   -2.9924    1.4342    1.7225   -8.8508 -130.1335 -119.3719 -177.8161  -30.4954  -58.5202   -6.1011
   27.5415   36.5243   18.4061    3.4745    0.7675   -7.6041   -6.0323   -0.3926    2.7650    4.0333
    1.2018    4.6665    4.2504    5.0570    0.5528    5.4597   10.8732    4.4313    6.1485   -3.9849
   10.5470   -5.6090   11.6091    7.4133  165.1976  169.4510  277.0927
  -71.7700    9.3234    2.1002   18.2793   11.0896   -2.2619  -24.8577   -5.9552    3.9139  -44.7197
   -4.6371    9.8365  -22.8703  -11.7353  -11.3563    3.5001    9.1606    1.2395   23.8239  -10.2292
    0.6409  -48.6968   -1.3875  -70.6849   29.1213   -6.0209   -3.6598    2.2666    6.7440   -3.8103
   -1.1731   -0.4231    1.0086    9.1186   10.5008   -0.8346   -4.9856   12.2320   29.4114    9.7104
  -21.3905   22.1971    6.3662    7.9840   -0.1170   12.7581   17.2608    1.6384   -8.8958  -11.7727
   -0.2169  -38.0521   -9.2302  -20.7316  -44.0404  -12.0682    4.7585   -6.2132   -1.9902   -0.5290
   34.3813    0.0833    1.2964  -51.3817   -2.9619   67.6644   18.3666   -1.8313    1.7572    1.5681
    5.1501   17.1260    0.0583   -0.9466   -1.1874    6.8227   12.7566   -0.1422   -2.0842   12.2967
  -25.3882    9.2795  -19.1124  -19.7567   14.9381   16.7785    4.9741  179.1244
    3.9401  -45.3492   -0.6697  -16.9466   -4.6950    4.3681   21.4807    6.3484   -1.4212   -4.4724
  -29.3918  -82.3507   -9.9787  -32.2463   -4.7006   -4.0193  -13.4160    4.7367    4.2306    6.4725
    0.0777    0.4533  -56.4829    2.1531  -10.2544    2.3641    3.4177   -5.4240  -14.2864   38.7084
   16.1041   17.6859   24.9594   12.8416   13.5480    1.7323   -3.1661    1.9529    7.1570   -9.6958
   16.2978   -9.5053    8.9297    7.9737   -3.1256   -8.5070    5.5613   -2.1865   20.3409   -0.4271
    2.2375    1.3711  -31.5273   81.9307  -13.5017  -21.4458    1.5250   -7.2341  -22.1136   -4.9768
    8.8623   10.1099    2.0253   -3.4029  -49.0356   -7.8516  -12.9729    4.8324   -8.0871   -5.3565
  -13.9497  -35.7810   12.2803   16.2271  -26.1164   12.1167   12.5126   -1.0119    0.5209   -1.7349
   -2.5269   -8.5815   10.9463    9.4154    3.5771    4.8519    3.5371    1.8390  182.2255
    3.7178    9.5065 -607.4691    4.8062  -23.0701   17.9582  -14.6476   30.4406   -1.0985    9.4649
  -20.7030  -21.4701   27.8902  -32.2406   17.1126   20.5060   37.1419   13.9595  -39.9898  -16.9503
   11.4762  -26.7377    6.1825  -19.5107  -13.2939    3.9214   17.8630   -6.4452   -9.3225   13.6819
   11.7986   16.7110   20.2053   -0.9594    0.4818   12.1404    2.7515    4.1322   20.9911    2.8111
   -2.9649   15.9110  -14.3890   -7.2474   15.0229    1.0697   10.9960   24.0305    1.8540   -9.6193
   -5.5682   -0.2209   13.9081  -15.6275  -18.1482   -8.6272   19.0610   29.3016   33.3418    7.3930
   -4.5966  -18.9205   14.8923   11.9793  -16.4697  -17.6293   10.4237   -3.8579   18.4953    1.1807
    8.0503   13.2268  -11.5299  -20.3944   14.1154    2.3461    5.5023   12.0359   -1.3063   -8.6938
   32.5887   -6.3264    9.3387   16.0255   13.3324   10.0264   14.1703   -0.4321    0.3944  571.6912
  -79.0426    9.9915    0.5204  -18.7935  -12.2256    1.6819    7.8368   18.2600    0.3522  -28.6605
   -4.5797  -12.1104    3.7453   -2.0920    2.1448    8.4146   15.6823    3.6394   12.7480  -25.2205
    9.1243    7.7310   -5.9737   34.8788    3.6367   -0.2177    0.6753    4.4621   -1.3821    5.9568
   10.3120    8.8042    6.7038   -0.9787    4.7369    1.0692   -2.8733   -7.6333  -17.6022   -7.0499
    7.8686   -3.4565   -0.7005    1.9143   -2.5702  -19.9385   -9.1805   -3.9438    2.4216   12.2195
   -1.2722  -13.6828    2.4952   11.8670   -2.8869   -0.1038   -3.4802    4.5030   20.8300    3.0030
   11.7267  -23.0452  -15.5033   19.3108   -6.3232  -41.4471    5.2502    0.1755   -0.6318    0.6737
    0.1843   -1.2404   -2.6515   -1.8082   -3.8789   -0.9472    3.4535   -4.1517   -1.8608   -8.2223
   28.1885   -5.9581    6.7722    5.4783    3.5477    5.9443    1.7231   -0.1748   -0.2550    4.4864
  195.0463
   13.7421  -39.1617    1.5578  -16.7927  -14.7321   14.9132   17.3421    0.9348   -5.4112   -7.5874
    1.3554   49.5116   -8.2995   -4.2023    3.4397    6.0009  -13.0194    4.8779   -3.8829   -1.9998
   -4.4158   -9.4331   -7.2231  -12.3214    8.7240   -9.3487   -4.3712    6.0354    4.8732  -27.0101
   -1.5812   -5.0234   -3.5248    3.9133    2.7730    1.6813    1.4247    5.2769   13.0244    2.5234
   -3.6984   -1.5594    6.7363    4.7023   -2.1821  -26.8902  -13.9637  -21.3330   27.3583    1.1918
    9.4022  -10.2510   -2.3467  -42.8059   -5.5633   -3.5828   -2.2756   11.6904   -1.7604   -1.3722
   -7.4205  -11.6961   -1.2853   -3.1196   -8.6191    2.9407    1.3680   -3.1818    0.3252    3.5607
    7.0064   27.2775    2.4308    0.7938    0.5286   -1.9800    1.1925    1.5655    1.5683   -0.1731
    0.2117   -0.4276    1.2741    0.2426    8.5276    4.8323    1.2412   -0.9268   -4.6463    1.4586
    1.2809  192.6138
    9.3442   28.7463 -345.6871   49.1048   51.6850   14.3714  -54.6435   -1.2937   51.1488  -26.4549
  -12.6360  -35.5435   17.9708   -5.9881   22.7144   36.4626   -0.4170   31.3343   -3.6654  -57.5132
   25.9500  -29.4157   13.7386  -12.2797  -16.1432   10.2897   23.5001    6.0252  -10.8205   61.0582
   20.6225   19.0985   18.2257   19.1127    3.5500   10.0482   -0.5447   -2.2054   67.2735    1.2115
   -5.7645   21.6504    8.2692   18.2790   -6.0689   -7.6588  -39.3694   20.5541   47.1834  -40.2392
   61.5851   10.9891  -14.9309  -13.1134  -27.0846  -44.2498   -8.4313  -30.2745  134.3658   11.9614
  -54.1835  -22.8021   28.6565   13.7907  -20.6029   24.8311   38.4993   -5.2892   29.1198    2.5107
   16.7758   17.5091  -25.0472  -16.9952   14.0699   -4.2125  -14.2550    6.5010   19.2674    2.5586
   16.1112   -1.0873   22.7791   24.1391   -2.6421  -10.6467   25.6155    9.4027    2.8251  144.4164
   -2.1577   -5.0236 2110.0462
  -56.1120    4.9769   -1.6185  -27.6795   -7.4926   -1.2583   -1.7428   20.1423    0.4054  -16.4779
   -5.8944   -9.4867    6.7898  -12.2876   14.4261   -1.6782   25.9884   -8.1288   -0.0353  -18.0679
   18.8787   15.3241   -6.0145   76.0489    3.2456   -1.1083   -1.3213   -0.2619   -0.0187   -2.1630
    3.0035    4.7131    5.5907   -2.0676    2.3936    3.0956    1.4757  -14.6914  -33.0886   -8.8466
   14.9877  -13.8670    3.0946    2.9857   -4.8221  -25.5468  -11.7930    1.5355   -2.9145   22.2115
   -1.9316  -18.0206   -6.7503    9.2514    4.2431  -10.2197  -14.2561   -9.6244   14.9769    0.6533
    3.6037  -12.7955  -13.3396   12.1780   -8.9960  -69.8792    2.0296   -1.5297    1.6650    1.3083
   -0.0684    3.4591    4.3682    8.5694   -7.0620    0.0397    2.3945   -2.1318    2.4321  -13.6892
   25.1659   -9.3391   16.1623   15.5360    6.0019    8.2225    4.6476    1.2650   -2.0508    0.4802
  -16.9703    2.3726    0.3180  175.3248
    5.3367  -30.6553   -0.9252   -5.5113   -4.5890    9.9514   14.4948   -8.1364   -3.9788   -2.0683
  -12.0749   87.8569  -18.6722    2.2389   19.9846   12.4699    0.7633   -6.2142   -5.5102  -23.8018
    1.6409   -3.3493   -5.2543   -9.3365    1.0121   -3.6846   -0.4262    7.4387   12.1997  -49.5821
   -6.4528   -8.4095   -9.8037    2.8647    5.2816    0.8243   -1.0947    2.7652    5.4198    2.2958
   -6.1469   -0.8653    8.6690    7.3435   -8.6569   -6.4129  -11.5935   -9.9478   12.1398   -9.1283
    3.1364  -12.0299  -10.9449  -82.6321   -9.9687   -2.4548  -13.4297   14.6435    2.1440   -1.0712
  -12.4836  -23.2541    0.2954   -3.9691   -6.3251   14.4026   10.7622   -7.6739    6.0606    9.0492
   10.1619   35.5403   -2.4682   -5.6219    9.0783    0.0945   -1.0747    1.1946    1.1574    4.1616
   -9.3064    2.2187   -1.0334    0.0148    8.4319    5.7525    4.7404   -0.5474   -4.1758   -1.7022
    1.5729  -15.5807    1.1318    5.8403  178.8622
  -19.0688  -36.8748 -109.3980  -37.9403   -5.5427   -1.5314   46.4151   16.0937  -13.9042   17.5082
    1.2694  -19.8141   10.6876   18.7727   -9.9652  -18.0902   28.7472  -28.1791    1.8958   12.4379
   -5.8766   11.6615   -6.3195   -6.7699   14.3085  -13.3615   -4.6236   -2.4073   -8.9023    2.5114
  -12.7842   -7.9760    0.7701  -20.3212    2.7457    4.8726   -3.9925   -2.3952  -29.5397   -2.7074
   -3.2261    7.3958  -13.2250  -16.8696   10.3877   -4.5011   12.0782  -12.1413  -44.5230   36.7689
  -27.1376    2.0273   15.6397  -18.0376    1.7590   47.2151   13.5957   44.0672 -112.2446   -7.0273
   32.0015   10.9376  -18.2848   -3.2415    8.0057  -17.7587  -29.3443    4.9024   -8.0179   -8.2104
   -4.9556   16.3470   16.7467    7.8860   -0.4009   19.0709    5.7914    6.7688   -9.4153    1.5247
  -13.9121    2.5408  -10.2656   10.4582    4.3655    3.7439   -4.5716   -3.8038    0.4104   44.0866
    0.8193    3.9904-1693.2953    0.0959   -2.0386 1759.0444


      MOLECULAR POINT GROUP   :   C2  


          ALPHA EIGENVALUES  
 -34.44690 -33.06637 -31.41399 -29.80607 -29.50976 -27.53804 -27.15733 -26.44525
 -26.28930 -25.27891 -24.40704 -24.40165 -23.41167 -20.36881 -20.24557 -18.84350
 -18.09178 -17.24330 -17.16889 -16.96057 -16.38941 -15.91825 -15.81534 -15.76628
 -15.52942 -15.44159 -15.07579 -14.93898 -14.27702 -14.16164 -13.92582 -13.90502
 -13.73369 -13.42514 -13.34291 -13.13313 -13.03029 -12.97703 -12.88639 -12.82479
 -12.22926 -11.70383 -11.25085 -11.17931 -10.87047 -10.24654 -10.11690 -10.03616
  -9.50490  -9.07269  -9.02086  -8.98855  -7.49605  -0.41758   0.19510   0.61101
   0.62372   0.67337   1.65770   1.95758   2.03481   3.45002   3.48738   3.59959
   3.98524   3.98838   4.10866   4.26227   4.53049   4.79761   5.03777   5.31312
   5.35590   5.38647   5.38797   5.42046   5.42212   5.60754   5.63783   5.67019
   5.72978   6.35209   6.59812   6.61295   6.61717   6.63769   6.72223   6.86294
  50.68404  51.32050  54.76477  75.05255  75.06417  76.18853  78.91917  79.14669


           BETA EIGENVALUES 
 -34.29660 -32.75842 -31.26468 -29.64904 -29.35661 -27.45970 -27.08503 -26.35279
 -26.18903 -25.21079 -24.39574 -24.35374 -23.28528 -20.32835 -20.21464 -18.69504
 -17.98256 -17.14149 -17.04920 -16.89112 -16.17963 -15.82700 -15.73144 -15.67065
 -15.39579 -15.37900 -15.02334 -14.85131 -14.17763 -14.08327 -13.89491 -13.89280
 -13.66597 -13.39409 -13.16852 -13.02374 -12.87499 -12.78760 -12.77391 -12.69080
 -11.82434 -11.40545 -11.09244 -10.70768 -10.37989  -9.82645  -9.71112  -9.45335
  -9.17703  -0.90277  -0.67779  -0.28903  -0.04179   0.27012   0.41560   0.93823
   0.97802   1.29623   2.01688   2.06358   2.24302   3.46756   3.50497   3.64356
   4.00641   4.03241   4.17920   4.39447   4.71027   4.84120   5.09208   5.33502
   5.37453   5.39223   5.39370   5.42236   5.42436   5.62529   5.65625   5.67539
   5.76337   6.53389   6.60167   6.61813   6.62237   6.66596   6.72824   7.14873
  51.92813  52.19662  55.83091  75.07673  75.08779  76.20722  79.06806  79.32702


              NET ATOMIC CHARGES AND DIPOLE CONTRIBUTIONS

  ATOM NO.   TYPE          CHARGE      No. of ELECS.   s-Pop       p-Pop       d-Pop       
    1         Mn           0.749938        6.2501     0.88634     0.38021     4.98351
    2          O          -0.542412        6.5424     1.87047     4.67194
    3          C           0.579801        3.4202     1.10802     2.31218
    4          C          -0.519430        4.5194     1.06330     3.45613
    5          C          -0.629351        4.6294     1.06539     3.56396
    6          C           0.544266        3.4557     1.11102     2.34471
    7          O          -0.478972        6.4790     1.87674     4.60223
    8          C          -0.501860        4.5019     1.06123     3.44063
    9          H           0.178129        0.8219     0.82187
   10          H           0.179795        0.8202     0.82021
   11          H           0.169268        0.8307     0.83073
   12          H           0.168460        0.8315     0.83154
   13          H           0.185266        0.8147     0.81473
   14          H           0.180320        0.8197     0.81968
   15          H           0.191029        0.8090     0.80897
   16          O          -0.541912        6.5419     1.87045     4.67147
   17          C           0.579655        3.4203     1.10808     2.31227
   18          C          -0.519402        4.5194     1.06327     3.45613
   19          C          -0.629025        4.6290     1.06542     3.56361
   20          C           0.544273        3.4557     1.11110     2.34463
   21          O          -0.479620        6.4796     1.87687     4.60275
   22          C          -0.501808        4.5018     1.06127     3.44054
   23          H           0.178137        0.8219     0.82186
   24          H           0.179879        0.8201     0.82012
   25          H           0.169168        0.8308     0.83083
   26          H           0.168380        0.8316     0.83162
   27          H           0.185428        0.8146     0.81457
   28          H           0.180303        0.8197     0.81970
   29          H           0.190956        0.8090     0.80904
   30         Cl          -0.501327        7.5013     1.96015     5.52502     0.01616
   31          C           0.600748        3.3993     1.44809     1.95117
   32          O          -0.258082        6.2581     1.85131     4.40677
 DIPOLE           X         Y         Z       TOTAL
 POINT-CHG.     0.004    -0.002    -0.047     0.047
 HYBRID         0.000     0.003     1.302     1.302
 SUM            0.004     0.001     1.255     1.255


          ATOMIC ORBITAL ELECTRON POPULATIONS

     Atom    s        px        py        pz      x^2-y^2     xz        z^2       yz        xy
    1 Mn   0.88634   0.12842   0.09421   0.15758   0.93992   1.04342   0.92351   1.03510   1.04156
    2  O   1.87047   1.57105   1.63234   1.46856
    3  C   1.10802   0.80014   0.84254   0.66949
    4  C   1.06330   1.18729   1.07568   1.19315
    5  C   1.06539   1.15020   1.07659   1.33716
    6  C   1.11102   0.81910   0.84748   0.67813
    7  O   1.87674   1.54212   1.50076   1.55935
    8  C   1.06123   1.08119   1.18455   1.17489
    9  H   0.82187
   10  H   0.82021
   11  H   0.83073
   12  H   0.83154
   13  H   0.81473
   14  H   0.81968
   15  H   0.80897
   16  O   1.87045   1.57061   1.63193   1.46893
   17  C   1.10808   0.80025   0.84257   0.66945
   18  C   1.06327   1.18703   1.07567   1.19343
   19  C   1.06542   1.15023   1.07688   1.33650
   20  C   1.11110   0.81925   0.84717   0.67821
   21  O   1.87687   1.54238   1.50157   1.55880
   22  C   1.06127   1.08111   1.18436   1.17507
   23  H   0.82186
   24  H   0.82012
   25  H   0.83083
   26  H   0.83162
   27  H   0.81457
   28  H   0.81970
   29  H   0.80904
   30 Cl   1.96015   1.97539   1.97384   1.57579   0.00126   0.00629   0.00319   0.00449   0.00093
   31  C   1.44809   0.50510   0.50265   0.94342
   32  O   1.85131   1.53010   1.53571   1.34096


                    (SZ)    =    2.000000
                    (S**2)  =    6.015942


          ATOMIC ORBITAL SPIN POPULATIONS

    Atom   Total    s     px     py     pz   x^2-y^2  xz     z^2    yz     xy
         Atomic
    1 Mn  3.6629  0.051  0.002 -0.002  0.002  0.445  0.916  0.374  0.923  0.952
    2  O  0.1117  0.009  0.041  0.045  0.017
    3  C  0.0121  0.000 -0.002 -0.004  0.017
    4  C  0.0106  0.002  0.000  0.007  0.002
    5  C  0.0084  0.000  0.003  0.000  0.005
    6  C  0.0090  0.001  0.003  0.003  0.002
    7  O -0.0023  0.002 -0.025  0.009  0.012
    8  C  0.0020  0.000  0.001  0.000  0.000
    9  H  0.0000  0.000
   10  H  0.0010  0.001
   11  H -0.0004 -0.000
   12  H  0.0003  0.000
   13  H -0.0001 -0.000
   14  H -0.0000 -0.000
   15  H -0.0001 -0.000
   16  O  0.1119  0.009  0.041  0.045  0.017
   17  C  0.0120  0.000 -0.002 -0.004  0.017
   18  C  0.0107  0.002  0.000  0.007  0.002
   19  C  0.0083  0.000  0.003  0.000  0.005
   20  C  0.0089  0.001  0.003  0.003  0.002
   21  O -0.0022  0.002 -0.025  0.009  0.012
   22  C  0.0020  0.000  0.001  0.000  0.000
   23  H  0.0000  0.000
   24  H  0.0010  0.001
   25  H -0.0004 -0.000
   26  H  0.0003  0.000
   27  H -0.0001 -0.000
   28  H -0.0000 -0.000
   29  H -0.0001 -0.000
   30 Cl  0.0096  0.000  0.015  0.019 -0.025  0.000  0.000  0.000  0.000  0.000
   31  C -0.0141 -0.000 -0.002 -0.002 -0.011
   32  O  0.0369  0.001  0.017  0.012  0.006

 **********************
 *                    *
 * JOB ENDED NORMALLY *
 *                    *
 **********************



 TOTAL JOB TIME:             4.51 SECONDS

 == MOPAC DONE ==
