 *******************************************************************************
 ** Site#: 26130        For non-commercial use only     Version 16.299L 64BITS**
 *******************************************************************************
 ** Cite this program as: MOPAC2016, Version: 16.299L, James J. P. Stewart,   **
 ** Stewart Computational Chemistry, web: HTTP://OpenMOPAC.net. Days left: 350**
 *******************************************************************************
 **                                                                           **
 **                                MOPAC2016                                  **
 **                                                                           **
 *******************************************************************************

                              PM7 CALCULATION RESULTS


 *******************************************************************************
 *  CALCULATION DONE:                                Thu Nov 10 16:01:51 2016  *
 *  PM7        - The PM7 Hamiltonian to be used
 *  QUINTET    - SPIN STATE DEFINED AS A QUINTET
 *  UHF        - UNRESTRICTED HARTREE-FOCK CALCULATION
 *
 *
 *
 *                 CHARGE ON SYSTEM =    +3
 *
 *
 *
 *  XYZ        - CARTESIAN COORDINATE SYSTEM TO BE USED
 *  EF         - USE EF ROUTINE FOR MINIMUM SEARCH
 *  T=         - A TIME OF 172800.0 SECONDS REQUESTED
 *  DUMP=N     - RESTART FILE WRITTEN EVERY  7200.000 SECONDS
 *  HESSIAN    - WRITE OUT HESSIAN FROM GEOMERY OPTIMIZATION
 *******************************************************************************
 EF PM7 XYZ HESSIAN QUINTET UHF CHARGE=3
 1009_M21_5

   ATOM   CHEMICAL          X               Y               Z
  NUMBER   SYMBOL      (ANGSTROMS)     (ANGSTROMS)     (ANGSTROMS)
 
     1      Mn          0.00000000  *   0.00000000  *   0.00000000  *
     2       C          4.51376400  *  -0.49636600  *   0.00034900  *
     3       C          4.79073400  *   0.85975500  *  -0.00006300  *
     4       C          3.75228500  *   1.80500400  *  -0.00037200  *
     5       C          4.10102100  *   3.15497600  *  -0.00078900  *
     6       C          3.12179000  *   4.13114700  *  -0.00097600  *
     7       C          1.77478600  *   3.77595200  *  -0.00083500  *
     8       C          0.82255300  *   4.80904300  *  -0.00082500  *
     9       C         -0.53152500  *   4.52340400  *  -0.00054300  *
    10       C         -0.89215200  *   3.20091400  *  -0.00011100  *
    11       N          0.00000000  *   2.19000000  *   0.00000000  *
    12       C          1.36323500  *   2.41657800  *  -0.00052600  *
    13       C          2.39613600  *   1.38351000  *  -0.00047500  *
    14       N          2.19000200  *  -0.00000200  *   0.00000000  *
    15       C          3.19392000  *  -0.86830900  *   0.00030800  *
    16       H          5.30481800  *  -1.23630200  *   0.00065900  *
    17       H          5.83144100  *   1.17737200  *  -0.00010700  *
    18       H          5.14490200  *   3.46303200  *  -0.00092700  *
    19       H          3.42482700  *   5.17654000  *  -0.00129100  *
    20       H          1.13297500  *   5.85189600  *  -0.00109600  *
    21       H         -1.27793900  *   5.30834500  *  -0.00062900  *
    22       H         -1.93429800  *   2.89635200  *   0.00012200  *
    23       H          2.89892600  *  -1.91321200  *   0.00064700  *
    24       C          0.00032600  *   0.48475800  *   4.50785900  *
    25       C          0.00017300  *  -0.87317500  *   4.78011300  *
    26       C         -0.00125800  *  -1.81991800  *   3.74073500  *
    27       C          0.00003400  *  -3.17203500  *   4.08554400  *
    28       C         -0.00002000  *  -4.14709800  *   3.10488800  *
    29       C         -0.00013600  *  -3.78694900  *   1.76011300  *
    30       C         -0.00026200  *  -4.81449800  *   0.80024200  *
    31       C         -0.00029300  *  -4.51835000  *  -0.55162500  *
    32       C         -0.00021400  *  -3.19348500  *  -0.90073000  *
    33       N          0.00000000  *  -2.19000000  *   0.00000000  *
    34       C         -0.00003800  *  -2.42362300  *   1.35814800  *
    35       C         -0.00005900  *  -1.38946000  *   2.39010700  *
    36       N          0.00000000  *   0.00000200  *   2.19000200  *
    37       C          0.00020400  *   0.86555700  *   3.19155600  *
    38       H          0.00050400  *   1.22316700  *   5.29978700  *
    39       H          0.00024900  *  -1.19334500  *   5.82032600  *
    40       H          0.00016300  *  -3.48280600  *   5.12863600  *
    41       H         -0.00004200  *  -5.19380400  *   3.40493600  *
    42       H         -0.00044100  *  -5.86012300  *   1.10165300  *
    43       H         -0.00056000  *  -5.29603100  *  -1.30571700  *
    44       H         -0.00017500  *  -2.87902500  *  -1.93968700  *
    45       H          0.00029900  *   1.91001200  *   2.89461900  *
    46       C          0.47030300  *  -0.00007100  *  -4.51728500  *
    47       C         -0.88917100  *   0.00051700  *  -4.78245400  *
    48       C         -1.82699300  *   0.00066700  *  -3.73761200  *
    49       C         -3.18234000  *   0.00114100  *  -4.07602000  *
    50       C         -4.15474300  *   0.00096500  *  -3.09208200  *
    51       C         -3.79029800  *   0.00052900  *  -1.74931100  *
    52       C         -4.81434800  *   0.00062200  *  -0.78457100  *
    53       C         -4.51378200  *   0.00042900  *   0.56634600  *
    54       C         -3.18754500  *   0.00013300  *   0.90753200  *
    55       N         -2.19000000  *   0.00000000  *   0.00000000  *
    56       C         -2.42570900  *   0.00022200  *  -1.35469100  *
    57       C         -1.39178200  *   0.00029500  *  -2.38766700  *
    58       N          0.00000200  *   0.00000000  *  -2.19000200  *
    59       C          0.85735600  *  -0.00049800  *  -3.20184700  *
    60       H          1.20214400  *  -0.00015000  *  -5.31586500  *
    61       H         -1.21543100  *   0.00086900  *  -5.82021000  *
    62       H         -3.49737800  *   0.00147300  *  -5.11770400  *
    63       H         -5.20227000  *   0.00139600  *  -3.38749400  *
    64       H         -5.86085300  *   0.00098500  *  -1.08207900  *
    65       H         -5.28772100  *   0.00049700  *   1.32404300  *
    66       H         -2.86611700  *  -0.00003300  *   1.94495900  *
    67       H          1.90518300  *  -0.00124700  *  -2.91761900  *
 


          CARTESIAN COORDINATES 

    NO.       ATOM         X         Y         Z

     1        Mn        0.0000    0.0000    0.0000
     2         C        4.5138   -0.4964    0.0003
     3         C        4.7907    0.8598   -0.0001
     4         C        3.7523    1.8050   -0.0004
     5         C        4.1010    3.1550   -0.0008
     6         C        3.1218    4.1311   -0.0010
     7         C        1.7748    3.7760   -0.0008
     8         C        0.8226    4.8090   -0.0008
     9         C       -0.5315    4.5234   -0.0005
    10         C       -0.8922    3.2009   -0.0001
    11         N        0.0000    2.1900    0.0000
    12         C        1.3632    2.4166   -0.0005
    13         C        2.3961    1.3835   -0.0005
    14         N        2.1900   -0.0000    0.0000
    15         C        3.1939   -0.8683    0.0003
    16         H        5.3048   -1.2363    0.0007
    17         H        5.8314    1.1774   -0.0001
    18         H        5.1449    3.4630   -0.0009
    19         H        3.4248    5.1765   -0.0013
    20         H        1.1330    5.8519   -0.0011
    21         H       -1.2779    5.3083   -0.0006
    22         H       -1.9343    2.8964    0.0001
    23         H        2.8989   -1.9132    0.0006
    24         C        0.0003    0.4848    4.5079
    25         C        0.0002   -0.8732    4.7801
    26         C       -0.0013   -1.8199    3.7407
    27         C        0.0000   -3.1720    4.0855
    28         C       -0.0000   -4.1471    3.1049
    29         C       -0.0001   -3.7869    1.7601
    30         C       -0.0003   -4.8145    0.8002
    31         C       -0.0003   -4.5183   -0.5516
    32         C       -0.0002   -3.1935   -0.9007
    33         N        0.0000   -2.1900    0.0000
    34         C       -0.0000   -2.4236    1.3581
    35         C       -0.0001   -1.3895    2.3901
    36         N        0.0000    0.0000    2.1900
    37         C        0.0002    0.8656    3.1916
    38         H        0.0005    1.2232    5.2998
    39         H        0.0002   -1.1933    5.8203
    40         H        0.0002   -3.4828    5.1286
    41         H       -0.0000   -5.1938    3.4049
    42         H       -0.0004   -5.8601    1.1017
    43         H       -0.0006   -5.2960   -1.3057
    44         H       -0.0002   -2.8790   -1.9397
    45         H        0.0003    1.9100    2.8946
    46         C        0.4703   -0.0001   -4.5173
    47         C       -0.8892    0.0005   -4.7825
    48         C       -1.8270    0.0007   -3.7376
    49         C       -3.1823    0.0011   -4.0760
    50         C       -4.1547    0.0010   -3.0921
    51         C       -3.7903    0.0005   -1.7493
    52         C       -4.8143    0.0006   -0.7846
    53         C       -4.5138    0.0004    0.5663
    54         C       -3.1875    0.0001    0.9075
    55         N       -2.1900    0.0000    0.0000
    56         C       -2.4257    0.0002   -1.3547
    57         C       -1.3918    0.0003   -2.3877
    58         N        0.0000    0.0000   -2.1900
    59         C        0.8574   -0.0005   -3.2018
    60         H        1.2021   -0.0002   -5.3159
    61         H       -1.2154    0.0009   -5.8202
    62         H       -3.4974    0.0015   -5.1177
    63         H       -5.2023    0.0014   -3.3875
    64         H       -5.8609    0.0010   -1.0821
    65         H       -5.2877    0.0005    1.3240
    66         H       -2.8661   -0.0000    1.9450
    67         H        1.9052   -0.0012   -2.9176

 General Reference for PM7:
 "Optimization of Parameters for Semiempirical Methods VI: More Modifications to the 
 NDDO Approximations and Re-optimization of Parameters", J. J. P. Stewart, J. Mol. Mod., 1:32, 19 (2013)
 http://www.springerlink.com/openurl.asp?genre=article&id=doi:10.1007/s00894-012-1667-x

           Empirical Formula: C36 H24 N6 Mn  =    67 atoms



      MOLECULAR POINT GROUP   :   D3  


 QUINTET STATE CALCULATION


          UHF CALCULATION, NO. OF ALPHA ELECTRONS =  103
                           NO. OF BETA  ELECTRONS =   99

          Geometry optimization using EF

          DIAGONAL MATRIX USED AS START HESSIAN

 CYCLE:     1 TIME:   0.434 TIME LEFT:  2.00D  GRAD.:   397.557 HEAT:  846.3871
 CYCLE:     2 TIME:   0.113 TIME LEFT:  2.00D  GRAD.:   225.098 HEAT:  801.4351
 CYCLE:     3 TIME:   0.094 TIME LEFT:  2.00D  GRAD.:   218.612 HEAT:  776.1255
 CYCLE:     4 TIME:   0.109 TIME LEFT:  2.00D  GRAD.:   266.578 HEAT:  771.7105
 CYCLE:     5 TIME:   0.125 TIME LEFT:  2.00D  GRAD.:   267.404 HEAT:  763.1686
 CYCLE:     6 TIME:   0.289 TIME LEFT:  2.00D  GRAD.:   137.058 HEAT:  748.2040
 CYCLE:     7 TIME:   0.266 TIME LEFT:  2.00D  GRAD.:    74.298 HEAT:  743.0506
 CYCLE:     8 TIME:   0.133 TIME LEFT:  2.00D  GRAD.:    66.103 HEAT:  739.4006
 CYCLE:     9 TIME:   0.137 TIME LEFT:  2.00D  GRAD.:    84.831 HEAT:  735.6865
 CYCLE:    10 TIME:   0.141 TIME LEFT:  2.00D  GRAD.:   151.421 HEAT:  734.0000
 CYCLE:    11 TIME:   0.145 TIME LEFT:  2.00D  GRAD.:   157.346 HEAT:  731.8161
 CYCLE:    12 TIME:   0.270 TIME LEFT:  2.00D  GRAD.:   100.620 HEAT:  727.1518
 CYCLE:    13 TIME:   0.281 TIME LEFT:  2.00D  GRAD.:    39.333 HEAT:  724.9319
 CYCLE:    14 TIME:   0.113 TIME LEFT:  2.00D  GRAD.:    59.159 HEAT:  724.4294
 CYCLE:    15 TIME:   0.129 TIME LEFT:  2.00D  GRAD.:    49.277 HEAT:  723.0909
 CYCLE:    16 TIME:   0.238 TIME LEFT:  2.00D  GRAD.:    47.667 HEAT:  722.6593
 CYCLE:    17 TIME:   0.137 TIME LEFT:  2.00D  GRAD.:    40.571 HEAT:  721.8734
 CYCLE:    18 TIME:   0.137 TIME LEFT:  2.00D  GRAD.:    63.847 HEAT:  721.7919
 CYCLE:    19 TIME:   0.133 TIME LEFT:  2.00D  GRAD.:    50.938 HEAT:  720.7394
 CYCLE:    20 TIME:   0.262 TIME LEFT:  2.00D  GRAD.:    54.899 HEAT:  720.6297
 CYCLE:    21 TIME:   0.133 TIME LEFT:  2.00D  GRAD.:    53.405 HEAT:  720.2188
 CYCLE:    22 TIME:   0.133 TIME LEFT:  2.00D  GRAD.:    55.257 HEAT:  720.0116
 CYCLE:    23 TIME:   0.141 TIME LEFT:  2.00D  GRAD.:    55.274 HEAT:  719.7323
 CYCLE:    24 TIME:   0.133 TIME LEFT:  2.00D  GRAD.:    61.467 HEAT:  719.7162
 CYCLE:    25 TIME:   0.133 TIME LEFT:  2.00D  GRAD.:    43.883 HEAT:  719.1364
 CYCLE:    26 TIME:   0.250 TIME LEFT:  2.00D  GRAD.:    21.228 HEAT:  718.7521
 CYCLE:    27 TIME:   0.121 TIME LEFT:  2.00D  GRAD.:    21.020 HEAT:  718.6219
 CYCLE:    28 TIME:   0.113 TIME LEFT:  2.00D  GRAD.:    25.695 HEAT:  718.5303
 CYCLE:    29 TIME:   0.121 TIME LEFT:  2.00D  GRAD.:    20.813 HEAT:  718.3792
 CYCLE:    30 TIME:   0.234 TIME LEFT:  2.00D  GRAD.:    20.248 HEAT:  718.3101
 CYCLE:    31 TIME:   0.121 TIME LEFT:  2.00D  GRAD.:    15.854 HEAT:  718.2094
 CYCLE:    32 TIME:   0.113 TIME LEFT:  2.00D  GRAD.:    23.355 HEAT:  718.1610
 CYCLE:    33 TIME:   0.125 TIME LEFT:  2.00D  GRAD.:    17.800 HEAT:  718.0184
 CYCLE:    34 TIME:   0.207 TIME LEFT:  2.00D  GRAD.:    20.327 HEAT:  717.9958
 CYCLE:    35 TIME:   0.121 TIME LEFT:  2.00D  GRAD.:    16.027 HEAT:  717.9084
 CYCLE:    36 TIME:   0.125 TIME LEFT:  2.00D  GRAD.:    24.148 HEAT:  717.8989
 CYCLE:    37 TIME:   0.125 TIME LEFT:  2.00D  GRAD.:    24.009 HEAT:  717.8223
 CYCLE:    38 TIME:   0.219 TIME LEFT:  2.00D  GRAD.:    11.323 HEAT:  717.7239
 CYCLE:    39 TIME:   0.211 TIME LEFT:  2.00D  GRAD.:     8.650 HEAT:  717.6951
 CYCLE:    40 TIME:   0.117 TIME LEFT:  2.00D  GRAD.:     8.922 HEAT:  717.6717
 CYCLE:    41 TIME:   0.117 TIME LEFT:  2.00D  GRAD.:     9.996 HEAT:  717.6431
 CYCLE:    42 TIME:   0.117 TIME LEFT:  2.00D  GRAD.:    13.046 HEAT:  717.6141
 CYCLE:    43 TIME:   0.113 TIME LEFT:  2.00D  GRAD.:    15.047 HEAT:  717.5905
 CYCLE:    44 TIME:   0.125 TIME LEFT:  2.00D  GRAD.:    16.711 HEAT:  717.5730
 CYCLE:    45 TIME:   0.207 TIME LEFT:  2.00D  GRAD.:     8.175 HEAT:  717.5228
 CYCLE:    46 TIME:   0.234 TIME LEFT:  2.00D  GRAD.:     5.859 HEAT:  717.5081
 CYCLE:    47 TIME:   0.117 TIME LEFT:  2.00D  GRAD.:     4.856 HEAT:  717.4948
 CYCLE:    48 TIME:   0.113 TIME LEFT:  2.00D  GRAD.:     8.472 HEAT:  717.4891
 CYCLE:    49 TIME:   0.117 TIME LEFT:  2.00D  GRAD.:     4.990 HEAT:  717.4659
 CYCLE:    50 TIME:   0.309 TIME LEFT:  2.00D  GRAD.:     3.021 HEAT:  717.4604
 CYCLE:    51 TIME:   0.117 TIME LEFT:  2.00D  GRAD.:     2.267 HEAT:  717.4545
 CYCLE:    52 TIME:   0.250 TIME LEFT:  2.00D  GRAD.:    12.265 HEAT:  717.4279
 CYCLE:    53 TIME:   0.125 TIME LEFT:  2.00D  GRAD.:    16.566 HEAT:  717.4248
 CYCLE:    54 TIME:   0.305 TIME LEFT:  2.00D  GRAD.:    13.198 HEAT:  717.4109
 CYCLE:    55 TIME:   0.234 TIME LEFT:  2.00D  GRAD.:     4.684 HEAT:  717.3721
 CYCLE:    56 TIME:   0.227 TIME LEFT:  2.00D  GRAD.:     4.520 HEAT:  717.3686
 CYCLE:    57 TIME:   0.113 TIME LEFT:  2.00D  GRAD.:     4.758 HEAT:  717.3653
 CYCLE:    58 TIME:   0.332 TIME LEFT:  2.00D  GRAD.:     5.472 HEAT:  717.3652
 CYCLE:    59 TIME:   0.102 TIME LEFT:  2.00D  GRAD.:     6.530 HEAT:  717.3627
 CYCLE:    60 TIME:   0.113 TIME LEFT:  2.00D  GRAD.:     6.952 HEAT:  717.3594
 CYCLE:    61 TIME:   0.121 TIME LEFT:  2.00D  GRAD.:     7.604 HEAT:  717.3589
 CYCLE:    62 TIME:   0.117 TIME LEFT:  2.00D  GRAD.:     6.485 HEAT:  717.3540
 CYCLE:    63 TIME:   0.113 TIME LEFT:  2.00D  GRAD.:     6.669 HEAT:  717.3508
 CYCLE:    64 TIME:   0.113 TIME LEFT:  2.00D  GRAD.:     7.327 HEAT:  717.3501
 CYCLE:    65 TIME:   0.117 TIME LEFT:  2.00D  GRAD.:     4.403 HEAT:  717.3411
 CYCLE:    66 TIME:   0.207 TIME LEFT:  2.00D  GRAD.:     5.030 HEAT:  717.3403
 CYCLE:    67 TIME:   0.098 TIME LEFT:  2.00D  GRAD.:     3.154 HEAT:  717.3351
 CYCLE:    68 TIME:   0.117 TIME LEFT:  2.00D  GRAD.:     6.076 HEAT:  717.3365
 CYCLE:    69 TIME:   0.117 TIME LEFT:  2.00D  GRAD.:     7.257 HEAT:  717.3234
 CYCLE:    70 TIME:   0.457 TIME LEFT:  2.00D  GRAD.:     7.755 HEAT:  717.3207
 CYCLE:    71 TIME:   0.098 TIME LEFT:  2.00D  GRAD.:     8.723 HEAT:  717.3129
 CYCLE:    72 TIME:   0.211 TIME LEFT:  2.00D  GRAD.:     4.236 HEAT:  717.2993
 CYCLE:    73 TIME:   0.121 TIME LEFT:  2.00D  GRAD.:     5.214 HEAT:  717.2983
 CYCLE:    74 TIME:   0.121 TIME LEFT:  2.00D  GRAD.:     3.952 HEAT:  717.2915
 CYCLE:    75 TIME:   0.230 TIME LEFT:  2.00D  GRAD.:     3.380 HEAT:  717.2891
 CYCLE:    76 TIME:   0.113 TIME LEFT:  2.00D  GRAD.:     6.730 HEAT:  717.2589
 CYCLE:    77 TIME:   0.359 TIME LEFT:  2.00D  GRAD.:    10.607 HEAT:  717.2570
 CYCLE:    78 TIME:   0.117 TIME LEFT:  2.00D  GRAD.:    11.361 HEAT:  717.2416
 CYCLE:    79 TIME:   0.324 TIME LEFT:  2.00D  GRAD.:     3.593 HEAT:  717.2097
 CYCLE:    80 TIME:   0.215 TIME LEFT:  2.00D  GRAD.:     4.370 HEAT:  717.2094
 CYCLE:    81 TIME:   0.121 TIME LEFT:  2.00D  GRAD.:     2.743 HEAT:  717.2030
 CYCLE:    82 TIME:   0.141 TIME LEFT:  2.00D  GRAD.:    10.769 HEAT:  717.1747
 CYCLE:    83 TIME:   0.223 TIME LEFT:  2.00D  GRAD.:    12.566 HEAT:  717.1526
 CYCLE:    84 TIME:   0.375 TIME LEFT:  2.00D  GRAD.:     7.538 HEAT:  717.1247
 CYCLE:    85 TIME:   0.090 TIME LEFT:  2.00D  GRAD.:     8.101 HEAT:  717.1175
 CYCLE:    86 TIME:   0.172 TIME LEFT:  2.00D  GRAD.:     3.384 HEAT:  717.1041
 CYCLE:    87 TIME:   0.176 TIME LEFT:  2.00D  GRAD.:     2.268 HEAT:  717.1000
 CYCLE:    88 TIME:   0.160 TIME LEFT:  2.00D  GRAD.:     8.069 HEAT:  717.0729
 CYCLE:    89 TIME:   0.324 TIME LEFT:  2.00D  GRAD.:    10.819 HEAT:  717.0682
 CYCLE:    90 TIME:   0.215 TIME LEFT:  2.00D  GRAD.:    11.029 HEAT:  717.0632
 CYCLE:    91 TIME:   0.238 TIME LEFT:  2.00D  GRAD.:     7.541 HEAT:  717.0355
 CYCLE:    92 TIME:   0.227 TIME LEFT:  2.00D  GRAD.:     2.689 HEAT:  717.0221
 CYCLE:    93 TIME:   0.113 TIME LEFT:  2.00D  GRAD.:     5.545 HEAT:  717.0234
 CYCLE:    94 TIME:   0.125 TIME LEFT:  2.00D  GRAD.:    10.521 HEAT:  717.0105
 CYCLE:    95 TIME:   0.301 TIME LEFT:  2.00D  GRAD.:     6.111 HEAT:  716.9873
 CYCLE:    96 TIME:   0.230 TIME LEFT:  2.00D  GRAD.:     4.585 HEAT:  716.9795
 CYCLE:    97 TIME:   0.234 TIME LEFT:  2.00D  GRAD.:     2.017 HEAT:  716.9742
 CYCLE:    98 TIME:   0.133 TIME LEFT:  2.00D  GRAD.:     8.500 HEAT:  716.9617
 CYCLE:    99 TIME:   0.121 TIME LEFT:  2.00D  GRAD.:    11.977 HEAT:  716.9579
 CYCLE:   100 TIME:   0.469 TIME LEFT:  2.00D  GRAD.:     6.366 HEAT:  716.9261
 CYCLE:   101 TIME:   0.219 TIME LEFT:  2.00D  GRAD.:     5.075 HEAT:  716.9208
 CYCLE:   102 TIME:   0.176 TIME LEFT:  2.00D  GRAD.:     2.575 HEAT:  716.9145
 CYCLE:   103 TIME:   0.086 TIME LEFT:  2.00D  GRAD.:     5.448 HEAT:  716.9185
 CYCLE:   104 TIME:   0.086 TIME LEFT:  2.00D  GRAD.:     5.897 HEAT:  716.9132
 CYCLE:   105 TIME:   0.328 TIME LEFT:  2.00D  GRAD.:     3.818 HEAT:  716.9049
 CYCLE:   106 TIME:   0.113 TIME LEFT:  2.00D  GRAD.:     5.066 HEAT:  716.9060
 CYCLE:   107 TIME:   0.223 TIME LEFT:  2.00D  GRAD.:     4.402 HEAT:  716.9039
 CYCLE:   108 TIME:   0.086 TIME LEFT:  2.00D  GRAD.:     3.626 HEAT:  716.9013
 CYCLE:   109 TIME:   0.082 TIME LEFT:  2.00D  GRAD.:     5.524 HEAT:  716.9012
 CYCLE:   110 TIME:   0.246 TIME LEFT:  2.00D  GRAD.:     3.546 HEAT:  716.8958
 CYCLE:   111 TIME:   0.094 TIME LEFT:  2.00D  GRAD.:     3.471 HEAT:  716.8948
 CYCLE:   112 TIME:   0.094 TIME LEFT:  2.00D  GRAD.:     5.072 HEAT:  716.8928
 CYCLE:   113 TIME:   0.258 TIME LEFT:  2.00D  GRAD.:     4.562 HEAT:  716.8925
 CYCLE:   114 TIME:   0.105 TIME LEFT:  2.00D  GRAD.:     3.808 HEAT:  716.8875
 CYCLE:   115 TIME:   0.215 TIME LEFT:  2.00D  GRAD.:     1.551 HEAT:  716.8831
 CYCLE:   116 TIME:   0.141 TIME LEFT:  2.00D  GRAD.:     4.783 HEAT:  716.8821
 CYCLE:   117 TIME:   0.230 TIME LEFT:  2.00D  GRAD.:     4.972 HEAT:  716.8793
 CYCLE:   118 TIME:   0.215 TIME LEFT:  2.00D  GRAD.:     3.798 HEAT:  716.8762
 CYCLE:   119 TIME:   0.121 TIME LEFT:  2.00D  GRAD.:     3.634 HEAT:  716.8749
 CYCLE:   120 TIME:   0.098 TIME LEFT:  2.00D  GRAD.:     4.696 HEAT:  716.8757
 CYCLE:   121 TIME:   0.117 TIME LEFT:  2.00D  GRAD.:     3.068 HEAT:  716.8736
 CYCLE:   122 TIME:   0.344 TIME LEFT:  2.00D  GRAD.:     3.198 HEAT:  716.8736
 CYCLE:   123 TIME:   0.113 TIME LEFT:  2.00D  GRAD.:     3.109 HEAT:  716.8697
 CYCLE:   124 TIME:   0.117 TIME LEFT:  2.00D  GRAD.:     5.605 HEAT:  716.8772
 CYCLE:   125 TIME:   0.105 TIME LEFT:  2.00D  GRAD.:     2.665 HEAT:  716.8690
 CYCLE:   126 TIME:   0.121 TIME LEFT:  2.00D  GRAD.:     3.175 HEAT:  716.8693
 CYCLE:   127 TIME:   0.105 TIME LEFT:  2.00D  GRAD.:     3.011 HEAT:  716.8680
 CYCLE:   128 TIME:   0.086 TIME LEFT:  2.00D  GRAD.:     3.158 HEAT:  716.8687
 CYCLE:   129 TIME:   0.090 TIME LEFT:  2.00D  GRAD.:     2.300 HEAT:  716.8671
 CYCLE:   130 TIME:   0.082 TIME LEFT:  2.00D  GRAD.:     2.648 HEAT:  716.8668
 CYCLE:   131 TIME:   0.086 TIME LEFT:  2.00D  GRAD.:     1.812 HEAT:  716.8652
 CYCLE:   132 TIME:   0.086 TIME LEFT:  2.00D  GRAD.:     1.850 HEAT:  716.8652
 CYCLE:   133 TIME:   0.105 TIME LEFT:  2.00D  GRAD.:     1.289 HEAT:  716.8643
 CYCLE:   134 TIME:   0.086 TIME LEFT:  2.00D  GRAD.:     1.752 HEAT:  716.8643
 CYCLE:   135 TIME:   0.090 TIME LEFT:  2.00D  GRAD.:     1.220 HEAT:  716.8637
 CYCLE:   136 TIME:   0.086 TIME LEFT:  2.00D  GRAD.:     1.248 HEAT:  716.8637
 CYCLE:   137 TIME:   0.094 TIME LEFT:  2.00D  GRAD.:     0.850 HEAT:  716.8630

     GRADIENT =  0.85041  IS LESS THAN CUTOFF =  1.00000



 -------------------------------------------------------------------------------
 EF PM7 XYZ HESSIAN QUINTET UHF CHARGE=3
 1009_M21_5



     GEOMETRY OPTIMISED USING EIGENVECTOR FOLLOWING (EF).     
     SCF FIELD WAS ACHIEVED                                   


                              PM7 CALCULATION
                                                       MOPAC2016 (Version: 16.299L)
                                                       Thu Nov 10 16:02:14 2016
                                                       No. of days remaining = 350




          FINAL HEAT OF FORMATION =        716.86298 KCAL/MOL =    2999.35471 KJ/MOL


          TOTAL ENERGY            =      -6069.91900 EV
          ELECTRONIC ENERGY       =     -71691.41633 EV  POINT GROUP:     C2  
          CORE-CORE REPULSION     =      65621.49733 EV
          COSMO AREA              =        463.20 SQUARE ANGSTROMS
          COSMO VOLUME            =        631.61 CUBIC ANGSTROMS

          GRADIENT NORM           =          0.85041
          IONIZATION POTENTIAL    =         15.333943 EV
          ALPHA SOMO LUMO (EV)    =        -15.334 -9.381
          BETA  SOMO LUMO (EV)    =        -17.292 -9.732
          NO. OF ALPHA ELECTRONS  =        103
          NO. OF BETA  ELECTRONS  =         99
          MOLECULAR WEIGHT        =        595.5638

          MOLECULAR DIMENSIONS (Angstroms)

            Atom       Atom       Distance
            H    61    H    40    11.53810
            H    18    H    64    11.51746
            H    21    H    43     9.80421


          SCF CALCULATIONS        =        204
 
          WALL-CLOCK TIME         =         23.047 SECONDS
          COMPUTATION TIME        =  1 MINUTE AND 25.849 SECONDS




   ATOM   CHEMICAL          X               Y               Z
  NUMBER   SYMBOL      (ANGSTROMS)     (ANGSTROMS)     (ANGSTROMS)
 
     1      Mn         -0.00745115  *  -0.00130725  *   0.00390075  *
     2       C          4.21770332  *  -0.55845729  *   0.15511143  *
     3       C          4.66355334  *   0.74483739  *   0.14583950  *
     4       C          3.71429213  *   1.79318519  *   0.07217363  *
     5       C          4.07222255  *   3.18231837  *   0.03298746  *
     6       C          3.12360049  *   4.15513764  *  -0.05278219  *
     7       C          1.72708245  *   3.82780617  *  -0.09149897  *
     8       C          0.69457539  *   4.79469251  *  -0.17913813  *
     9       C         -0.61494056  *   4.37070318  *  -0.19143180  *
    10       C         -0.92547223  *   2.99028966  *  -0.11152115  *
    11       N          0.02486773  *   2.03782133  *  -0.03107996  *
    12       C          1.34414928  *   2.47780304  *  -0.03424905  *
    13       C          2.35370224  *   1.44230450  *   0.02770643  *
    14       N          1.90071637  *   0.12137414  *   0.03145002  *
    15       C          2.83632441  *  -0.85471925  *   0.09518280  *
    16       H          4.93028188  *  -1.39732609  *   0.20880505  *
    17       H          5.73940639  *   0.98139252  *   0.19235228  *
    18       H          5.14230815  *   3.44075722  *   0.07067783  *
    19       H          3.40745422  *   5.21875037  *  -0.09121089  *
    20       H          0.95007568  *   5.86517283  *  -0.23506690  *
    21       H         -1.44195293  *   5.09355779  *  -0.25964684  *
    22       H         -1.98164184  *   2.67911574  *  -0.10982480  *
    23       H          2.51941634  *  -1.91250813  *   0.09787367  *
    24       C          0.19836605  *   0.54269961  *   4.22831362  *
    25       C          0.18463288  *  -0.76174389  *   4.67067471  *
    26       C          0.09308043  *  -1.80673452  *   3.71955366  *
    27       C          0.04891720  *  -3.19656952  *   4.07408281  *
    28       C         -0.04957072  *  -4.16633344  *   3.12356495  *
    29       C         -0.09791936  *  -3.83519867  *   1.72819098  *
    30       C         -0.19514781  *  -4.79916382  *   0.69409799  *
    31       C         -0.21688636  *  -4.37148594  *  -0.61413069  *
    32       C         -0.13777799  *  -2.99038662  *  -0.92148257  *
    33       N         -0.04740960  *  -2.04056507  *   0.03080787  *
    34       C         -0.03994041  *  -2.48426350  *   1.34863747  *
    35       C          0.03624274  *  -1.45197724  *   2.36045989  *
    36       N          0.04247263  *  -0.12985146  *   1.91116597  *
    37       C          0.12369602  *   0.84321852  *   2.84865337  *
    38       H          0.26712776  *   1.37902475  *   4.94265485  *
    39       H          0.24208507  *  -1.00163477  *   5.74528520  *
    40       H          0.09381629  *  -3.45828595  *   5.14337269  *
    41       H         -0.09119392  *  -5.23103777  *   3.40504137  *
    42       H         -0.25040437  *  -5.87000596  *   0.94687607  *
    43       H         -0.29201001  *  -5.09199162  *  -1.44244257  *
    44       H         -0.14504952  *  -2.67604573  *  -1.97709011  *
    45       H          0.12962737  *   1.90177421  *   2.53457370  *
    46       C          0.59837689  *   0.15267129  *  -4.23747764  *
    47       C         -0.70579814  *   0.14155248  *  -4.67981552  *
    48       C         -1.75023975  *   0.07156491  *  -3.72513538  *
    49       C         -3.14660797  *   0.03719614  *  -4.05668775  *
    50       C         -4.10321738  *  -0.03364283  *  -3.08933845  *
    51       C         -3.75590949  *  -0.06702943  *  -1.69662962  *
    52       C         -4.69899411  *  -0.13347632  *  -0.64147989  *
    53       C         -4.24188013  *  -0.14286632  *   0.65763527  *
    54       C         -2.85656548  *  -0.09106048  *   0.94815289  *
    55       N         -1.92711113  *  -0.03480975  *  -0.03148846  *
    56       C         -2.39782368  *  -0.02677806  *  -1.34513366  *
    57       C         -1.38332379  *   0.02976770  *  -2.37118031  *
    58       N         -0.06446404  *   0.03802680  *  -1.91524659  *
    59       C          0.90447732  *   0.09805171  *  -2.85570116  *
    60       H          1.43441165  *   0.20476486  *  -4.95416823  *
    61       H         -0.94616873  *   0.18476091  *  -5.75499677  *
    62       H         -3.42476298  *   0.06805418  *  -5.12279451  *
    63       H         -5.17239741  *  -0.06508898  *  -3.35548848  *
    64       H         -5.77680561  *  -0.17512663  *  -0.86971457  *
    65       H         -4.94929707  *  -0.19115603  *   1.50171040  *
    66       H         -2.53613021  *  -0.09571843  *   2.00386970  *
    67       H          1.96377262  *   0.10400057  *  -2.54710528  *

                             CARTESIAN COORDINATES

   1   Mn       -0.007451151    -0.001307251     0.003900746
   2    C        4.217703321    -0.558457289     0.155111433
   3    C        4.663553341     0.744837394     0.145839500
   4    C        3.714292128     1.793185185     0.072173626
   5    C        4.072222552     3.182318372     0.032987459
   6    C        3.123600490     4.155137639    -0.052782187
   7    C        1.727082448     3.827806166    -0.091498972
   8    C        0.694575389     4.794692512    -0.179138131
   9    C       -0.614940563     4.370703183    -0.191431798
  10    C       -0.925472227     2.990289657    -0.111521147
  11    N        0.024867733     2.037821326    -0.031079956
  12    C        1.344149280     2.477803044    -0.034249049
  13    C        2.353702236     1.442304500     0.027706434
  14    N        1.900716365     0.121374144     0.031450016
  15    C        2.836324412    -0.854719247     0.095182797
  16    H        4.930281878    -1.397326089     0.208805045
  17    H        5.739406390     0.981392520     0.192352284
  18    H        5.142308149     3.440757224     0.070677827
  19    H        3.407454224     5.218750371    -0.091210891
  20    H        0.950075684     5.865172826    -0.235066896
  21    H       -1.441952931     5.093557789    -0.259646844
  22    H       -1.981641838     2.679115736    -0.109824800
  23    H        2.519416341    -1.912508130     0.097873668
  24    C        0.198366054     0.542699606     4.228313622
  25    C        0.184632884    -0.761743891     4.670674709
  26    C        0.093080433    -1.806734521     3.719553657
  27    C        0.048917199    -3.196569522     4.074082810
  28    C       -0.049570721    -4.166333442     3.123564952
  29    C       -0.097919362    -3.835198668     1.728190977
  30    C       -0.195147806    -4.799163819     0.694097992
  31    C       -0.216886358    -4.371485940    -0.614130686
  32    C       -0.137777989    -2.990386619    -0.921482570
  33    N       -0.047409597    -2.040565071     0.030807869
  34    C       -0.039940410    -2.484263500     1.348637474
  35    C        0.036242745    -1.451977236     2.360459890
  36    N        0.042472630    -0.129851455     1.911165972
  37    C        0.123696025     0.843218518     2.848653372
  38    H        0.267127759     1.379024745     4.942654852
  39    H        0.242085074    -1.001634767     5.745285201
  40    H        0.093816294    -3.458285947     5.143372695
  41    H       -0.091193924    -5.231037767     3.405041367
  42    H       -0.250404370    -5.870005955     0.946876073
  43    H       -0.292010006    -5.091991624    -1.442442566
  44    H       -0.145049524    -2.676045732    -1.977090114
  45    H        0.129627375     1.901774210     2.534573699
  46    C        0.598376892     0.152671291    -4.237477635
  47    C       -0.705798136     0.141552481    -4.679815518
  48    C       -1.750239750     0.071564907    -3.725135380
  49    C       -3.146607969     0.037196145    -4.056687755
  50    C       -4.103217383    -0.033642835    -3.089338446
  51    C       -3.755909493    -0.067029429    -1.696629616
  52    C       -4.698994105    -0.133476323    -0.641479893
  53    C       -4.241880134    -0.142866320     0.657635272
  54    C       -2.856565477    -0.091060481     0.948152893
  55    N       -1.927111132    -0.034809746    -0.031488463
  56    C       -2.397823676    -0.026778056    -1.345133664
  57    C       -1.383323791     0.029767704    -2.371180307
  58    N       -0.064464043     0.038026795    -1.915246590
  59    C        0.904477323     0.098051707    -2.855701161
  60    H        1.434411653     0.204764857    -4.954168228
  61    H       -0.946168733     0.184760913    -5.754996772
  62    H       -3.424762977     0.068054185    -5.122794508
  63    H       -5.172397409    -0.065088983    -3.355488476
  64    H       -5.776805612    -0.175126633    -0.869714566
  65    H       -4.949297066    -0.191156025     1.501710403
  66    H       -2.536130210    -0.095718428     2.003869701
  67    H        1.963772615     0.104000569    -2.547105283


           Empirical Formula: C36 H24 N6 Mn  =    67 atoms

    Hessian matrix from geometry optimization
  900.1884
   22.8668  422.4752
   19.0216  -85.7932  949.3634
    0.8210   30.9145   -0.1602 1163.1416
   39.3530  -51.2950   11.6321  116.2816 1290.6896
   -3.0259   -2.8981  -13.0097   27.3038  -10.0632  214.0742
  -10.2322   40.9493   -4.9482 -244.1825 -298.7601    0.1010 1090.7969
  -13.9048    5.1661   15.4265 -187.2377 -798.2753    9.2577   30.8094 1369.0585
    0.2770   27.2685  -32.4025   -5.1273    0.3607  -40.0092   22.8068  -20.7791  211.2958
   41.0042   55.6764  -11.7125   38.0732  102.2864    0.4608 -438.8010  217.3604   -6.6406 1324.3626
   24.0530  -43.9435  -29.1015   11.8205 -198.2694   11.8383  330.9060 -400.5230   -3.2471  -58.6889
 1385.3251
   12.3170  -19.4138  -16.5796    5.9697    3.7349   10.2115  -12.8317   16.8414  -40.9433    7.7776
  -20.4241  224.5036
  -12.3482    4.4372   46.5744    1.8128   -5.4103    4.5158    7.4662   35.9628   -2.9862 -139.7767
 -126.0891    6.0184 1176.1465
    7.3776    1.8369   30.8753   37.9992   61.6179   -4.8101   54.7956  -78.9847   -6.0299  -78.6975
 -521.7709    4.8217 -269.6719 1268.7406
  -17.7747   15.2571  -24.0123    2.3401   -6.8071   -9.5664   10.2435   -6.8726   -4.3649    7.3081
   26.4119  -35.2411   11.1513  -12.9561  219.2791
  -21.7940   27.7984  -19.5313  -56.3156  -25.9777   -7.3578  -12.6897   11.5352    4.4412   32.0654
   59.4848  -10.9929 -542.3745  424.1592    0.4351 1310.6305
  -35.4088   15.3701   15.1301  -23.2989   27.7240   -2.1058  -22.4851   29.5454   13.7118   35.7870
 -147.3858  -19.8283  470.5406 -612.8636   36.6248 -238.8678 1181.0724
   20.7103   -9.0340  -25.7738   -1.2352    2.2253  -11.8618   -6.9213    0.3871  -12.5728   -4.0544
  -12.0476    7.2149   -0.1301    5.3228  -43.0609   14.3187  -39.5920  212.0042
  -36.5842   59.5377   13.2286   20.0090   34.2896   13.3334  -12.3528  -18.7814    1.5120   -6.3993
  -19.8967    0.3944 -110.2372   62.6496   17.6938 -517.8762 -157.1003  -18.0011 1331.5559
   22.9451   14.3149    4.2489   42.0785  -13.0490    2.4576   -8.5714    0.9606   -9.5193    6.4591
   14.7886   -6.3440    4.4231   36.7691   -1.7648  -87.8355 -119.0196   -3.0679   14.9088 1297.6966
   -4.9243   32.4602  -28.9678   -4.4031    1.8106   -4.8780    3.4949    2.5870    5.8153   -1.6905
   -6.3453  -25.8230   -7.6085   -8.1935    6.7594   -0.3653   -4.7482  -31.5128    9.6076  -15.4786
  218.7433
  -33.7213  -27.3888   26.4940    7.3940    7.4332    8.2613   19.0431   10.0423   -8.5378   30.3160
   16.2018    3.2952  -31.3947  -27.9830    4.6844  -66.5482   51.6593   -8.2764 -361.2542  196.3425
  -13.2540 1398.6572
  -30.0526   26.0128  -23.5117   -3.8749  -18.0557   -2.9030   20.6036   19.9974   -2.6520    6.6825
  -16.1202   19.6846   -7.6527  -20.6244  -21.1714   31.3146  -22.7546   15.7901  248.0510 -391.9219
   -0.5053   65.3090 1131.4995
   -3.1899  -33.8759  -17.9210   10.4098   -3.5828    5.4473   -0.2718  -11.7125  -13.7467    7.7351
   22.1647    5.7842   -0.2774    8.7730  -12.7927    0.4540   11.5029  -10.3260    1.1085   14.5534
  -39.7820   27.5593  -34.4516  212.4022
  -38.4572    4.8717  -36.0782   42.8546   63.6441   -0.2688   22.3371  -35.3759    2.5714  -17.5539
  -25.1358    0.5215  -16.2953    8.3026    0.2195  -25.7133   10.1766   -2.4603 -137.6678   89.4772
    7.0087 -854.6253 -260.7870   -8.8701 1370.6507
   31.7170   19.7254   18.9583    2.6265  -47.1375    3.5576  -17.0921   13.3857   -2.6327  -17.5922
  -28.0531    6.8952   -8.3401    1.6305  -12.3795   15.8096  -20.9669    4.5756  -47.5853   82.6487
   -6.9645 -114.1190 -235.3447   -3.4674  121.7808 1171.2449
   -4.3634   21.8487  -36.4161   -2.1664    2.4137    0.0793    3.2974   12.2735    6.8183   -4.0672
  -14.6727  -10.5812   -5.4011   -0.5423   -7.3145    6.6905  -14.8635  -11.9494  -16.2166    4.4528
    7.1240   -9.9290    5.9304  -36.3228   19.0310  -31.0576  203.2457
  -86.4025   14.5373  -35.6576  -23.4819   13.6459    4.6702   17.2391  -32.7284   -0.1300   -1.9682
  -25.0229    9.8684  -10.7242   28.0369  -11.0192   -6.9004    2.2279    7.8367  -49.8537   74.7100
    3.8127  -29.1103  -94.6357  -15.8269 -180.2678 -162.7982    9.3771 1167.9905
  -11.1206  -38.0239   18.1272  -32.4020  -26.1375    1.7111  -14.3379   43.5886   -8.2584   -4.7480
   23.9604    3.7084  -19.0903  -21.8297   -2.1548  -24.2119   -3.6077    1.4205   68.8274  -49.9838
  -10.3007 -198.0097  -30.0912   10.4338  -50.4493 -565.6572   11.3534  -82.2155 1275.5696
   -6.7017   -4.3623   -7.6582    6.5506   -1.9856   -0.2169    6.0615  -10.9364   -2.0048   -7.8362
    4.4186    1.0769    8.6982   -2.2993  -13.3148   -0.2332    4.7748    2.5523    8.9663   -2.8399
  -22.1571   -2.1647   -7.6313   -0.6756   -0.6553    7.9400  -22.7820   -0.1840  -20.3820  198.0365
  -76.2250  -41.6040   -8.8445  -16.5555  -29.9105    7.4126   -6.1503    3.4664  -12.2257   76.8078
    3.8691   13.6581   -6.8335   11.2455   -6.4085    4.5474   14.0065    4.2566  -42.2499 -168.9887
   -5.6780 -101.0972   47.4994   14.5071   73.3466  162.5360   -8.0299 -522.9234  247.9463  -18.1908
 1257.0641
   -4.9508 -193.3681   13.2203  -12.5139   37.3796   -3.2208  -20.8817  -54.4478   -6.7542  -31.9482
    6.0471    8.1826   28.0916   26.2300   -0.1617   46.0491  -49.4519    0.6842 -134.1901  -24.9643
   -2.5952   26.7407    0.3937    3.2255   50.0716 -162.8361    6.2755  351.6582 -526.3839   -1.0590
 -187.4865 1082.0623
    9.6609   16.3931  -47.5027   -4.0558   -5.7438   -0.5336   -2.8782    5.4855   -1.9553   14.4436
    0.5006  -11.6731  -16.0193   -1.3799    3.6912   -6.4634   -3.9305  -17.2522    5.5937   -2.8585
    7.6303    0.1782   12.4486  -17.6181   -2.9451   -1.9984   -4.0690    1.2688    1.5414  -22.5282
   12.1196   -3.2870  206.8347
   38.6932  -73.9026   14.3358  -12.1476  -34.9276   -2.5872   34.2924   37.6592    2.8650 -116.8736
   15.8298   -2.0034  -16.4421  -25.6971   -5.8495  -40.0558  -66.7432    5.2758 -204.8236 -104.7284
    6.1902   95.7266   14.4810   -9.7119  -51.7555  -58.4711    4.2160 -128.8181  175.9960    4.0912
 -530.0028 -196.5543  -14.3542 1252.5900
  -25.4901   11.1846   21.4608  -24.8482   30.7542   -4.9797  -10.5622  -26.3004    4.1875   24.1842
   37.5145   -2.1668    7.4429  -31.3324    5.2759 -159.2051  -28.6692   -5.9473  -90.1138 -637.7510
   -5.8494  120.7187 -135.3638   15.6808  -41.6249  -10.5467  -10.5752   42.0260   63.7866    7.6203
 -166.3993 -237.6279   -4.9949   40.4752 1376.0956
    1.5668  -18.3915   -8.3457    7.5690   -2.0265    3.9602   -2.1872   -6.4083  -18.1696   -3.6697
    2.2565   12.0785   11.7677   -6.7129  -21.7722   -3.8427    6.9611    3.1661   13.2915   -7.7278
  -31.0262   -1.4653    6.7311    6.0531   -9.2744    2.4919  -22.9076    1.4737   -3.6194    4.8373
    0.5793    4.7542  -18.1357   -0.4506   -7.2671  213.0478
  -22.5050  -29.5490   15.3870  -32.0185  -31.6182    2.5759 -159.8991  100.7344  -13.4913 -687.3788
 -145.7904    3.9913  -34.2064  -97.4752    1.0498  -39.7650   15.0492   -2.4963   82.1088   71.4001
   -6.3232    3.6858   -9.2121    5.9617    4.2168    7.1074   -3.3342    6.9474  -52.8474    1.6745
 -154.8613   51.1876   -6.2570 -292.1332  254.0593   -0.4996 1434.6426
  -75.1432    2.0371    5.9797  -88.2679  -76.2090    6.2273   42.8190  117.0124   -2.6573  -39.8692
 -189.4043    3.0470  -52.7314  -12.7760    8.3039   39.7401   27.9072  -12.3505  -25.1660 -129.2814
    0.2719   -9.1213   -7.9716    8.5863    8.7730  -23.7792  -12.0808  -42.8419    7.6229   14.3984
   47.7470   48.6768  -24.0460  270.1791 -291.2833   14.8054  -26.1928 1259.1554
   -3.6349    9.8573  -19.2820   -8.7356   -5.4764  -31.4319    1.1627   -9.0209   12.1518    2.9623
    7.7114  -37.5039   -6.4657    7.1120    4.3264   11.7144    0.1094  -18.8406   -5.8511   10.2140
    4.9128   -0.8688  -12.6099  -11.9414    3.0443  -12.8913    1.3486  -11.8148    5.2276  -10.7597
   -5.1360   -0.3749    1.9615    1.0135    1.4185  -23.7930    2.6641  -22.2869  221.1473
 -461.8820  -59.5835  -18.6129 -158.6335   51.9429  -13.1887   49.0179   54.5536   10.5020  -42.9728
  -85.8198   -9.4891   20.1084  -21.5504   -6.3457   10.6029   42.8257    8.3419   26.8552  -36.2041
    5.2614  -15.0206  -10.0189   -7.7607  -45.5684  -37.4455   10.8940   47.1657   26.8621    4.3639
  -23.3106   44.7948   -9.4471   50.7285   50.8482    0.6059 -218.7789 -182.8582    0.8648 1312.1317
  -44.4319  -56.5690    1.5497  198.2940   74.3294    2.1286   51.2000 -116.8866    0.0621 -188.2289
   10.2994   -0.3262    3.4280   16.6272  -15.3573   18.9278   -6.7685   11.1204   30.0015   45.1331
    9.3693  -27.2638   -7.4246  -17.8685  -26.6372   18.3830   17.8296   -0.7315    3.7369   -5.5520
   24.9354  -20.2251    2.6776   37.4904 -150.0704   -7.1943 -107.0881 -533.4571    2.8513 -206.9036
 1252.9402
   -2.1832   17.7857  -69.8715    2.2521   14.0787   13.0605    4.3297    9.7185  -22.4897   -6.5097
  -10.8327   10.7534   -4.2425  -21.2794  -11.7912    1.5338    6.2543   -4.7506   -1.8119    1.0938
   -1.6942    4.0433   -0.1817   -9.5552    8.4734    5.1423    4.9931    8.9721   -0.3880    0.0382
    1.0755  -17.7972   -3.8402    1.7428   -2.4731    1.3932    8.4853   22.1678  -29.3578   14.8795
   -7.8587  228.2826
  -35.5397   42.2505   -1.5787 -527.8152  -48.6883  -14.5643  -31.5778 -174.0954    8.2520  -48.4146
   58.4942  -10.5233  -38.1381   -9.8537    2.9564   40.7850   14.6171   -4.6716  -14.8608  -57.3245
   10.6339    0.6739    4.1907   -9.9623  -16.9479   24.1531   -1.8848   31.3385   -7.6471    5.3430
   44.2832   -1.6427    0.0401  -38.8519  -18.3483   -0.7017  113.9726  192.7709    7.1614 -532.1901
  190.5554  -11.0444 1175.3506
   54.8314   -6.9624    9.2413 -156.5835 -214.9596    9.3294  -97.5527  -58.2431   -1.6284   30.2223
   36.8943   -1.6607   16.4009  -13.4556   10.1434  -21.7342   10.2863   -9.1102  -13.5160    2.6591
   -0.5022   26.0309   -6.0930    5.4746   33.1255  -28.3797   -7.4382    6.8901  -14.5940    1.0486
   -7.0461    7.5197    1.7236  -30.7284   55.1254    9.0184   10.5779 -149.5018   -2.1158  374.8363
 -569.4355    6.0337 -132.3808 1172.7169
   -2.8856   -3.8344  -23.1305  -17.1207   -7.7331  -37.7916    1.8551  -13.3245    8.2435    6.0225
    0.5289  -27.9073    0.1967   10.3756   -5.4047    1.7747    1.1227   -3.7086   -6.1463   -3.6150
   -6.5125   -4.9069    0.1883    3.6158    1.0182   -2.0615   -1.3554   -3.6979   -0.0962    2.0763
   -0.5067   10.7086    0.0762    4.2219    2.6838  -10.2796   -8.0819   -7.5720   17.0625   -7.6161
    1.4322  -36.0043   22.0876   -9.8665  220.5268
   27.5296  -33.1728    3.3669 -179.9431  153.3829   -1.2626   15.9603  -15.8133   -5.0025   15.3936
  -39.8569    1.1953   -7.4742   -9.6425    2.8443    9.9792   10.3297   -3.0756   -7.1372    3.4008
    2.4650   -0.4221    2.6872    0.1604    4.2129  -10.5679   -0.4665  -17.4702   11.8306   -4.5591
   -3.2923    7.5454    2.3970   10.1638   12.1897   -2.7744   -1.7029  -22.2372    0.8462   66.3593
  -25.1186    4.3516  -24.3346   -4.8428   -3.1193  277.4450
  -29.5582   31.8055   -9.6576  181.6191 -200.8903   -1.1007   12.7384  -12.6306    7.1061  -47.7645
   65.5619   -5.4591   10.3282   11.7870   -3.0410   -7.4367  -14.8010    2.7744   -2.9858    1.6867
   -1.8270   -1.5602   -0.8267    0.9982    0.6847    9.5442    0.2108   18.5080  -13.7336    5.7412
   11.7755   -5.5562   -1.7661  -10.1215  -19.0238    2.5957  -15.8737   12.7665    1.8428  -56.4582
   14.2844   -8.0069  -11.4315   41.9739    5.2643 -103.6431  312.1708
    3.4376    2.0479   -2.8722   -9.5063    4.3049  -12.5924    2.1960   -2.4550   -5.2536    2.0741
   -4.8225   -7.5001    0.2510   -1.0774   -3.7280    0.2840   -1.5394    0.0133    0.9608   -2.4807
    1.3237   -4.2175   -1.0426    3.0360   -0.9146    1.3969    6.3438   -0.2609   -1.8364    2.8117
   -1.9929   -1.7922    1.3385    2.9764   -1.0583   -1.7668   -0.5891   -3.6697   -1.2970    1.9449
   -2.5992   -6.6305    4.5655   -3.2345   -3.2490    4.1017   -3.9792  191.7302
  -32.4049  -45.8056   -9.6967   21.8741   21.2130   -0.4954 -291.0643  -45.4068   -9.4174   25.6682
    3.3666   -0.0953    6.3130  -50.7668   -0.9431    9.3484  -17.1651    2.7667  -11.2379   -8.5118
   -2.6210  -19.5821  -25.1724    5.5243  -34.3876   15.9109   -6.3217  -21.5394   16.7011   -0.7600
    5.3887   19.8749   -1.4478   21.7801   -7.7753    1.7939   81.3105  -25.9357    3.7139   14.7036
   15.5533   -6.6201   44.5679   63.1659    3.6393  -15.1914    7.9023   -0.3176  342.8697
   -3.3568  -12.3461   -0.8167  -16.0284    8.0197   -3.2298  -62.5914  -37.9964   -1.9651   36.4654
   13.8561   -2.0734   -0.0868  -18.6552   -0.6892    6.4699   -6.7430   -0.1693   -6.1040    2.0615
   -1.6762   -3.8784   -9.2501    2.7482   -0.9872   -3.0076   -1.5046    3.6195    2.4700    0.3397
    5.4369    6.1850   -0.1162   -2.7846    1.9409    0.0542   -5.8628  -11.8459    1.7672    2.6496
  -13.2900   -4.2458   16.5983   17.1793    2.6004   -5.3073   -7.1159   -0.5177   30.6207  200.4507
   -3.8766   -6.2659  -12.1960    3.9812   -1.7066   -5.2440   -5.5540    1.9014  -14.0150   -0.1490
    3.4839   -4.0264    2.3345   -1.8520   -5.3399    0.7944   -1.7651   -1.1836   -0.3635    1.7011
    0.5136    1.9333    0.5854    7.7688    1.3774    0.9503    2.8287   -2.0353    3.9776   -0.0678
    3.7535    3.6877   -2.9309    0.6259   -0.4969    0.3242    4.6860    0.1209   -5.8390   -2.0509
    1.3193   -0.0130   -5.6772   -1.6531   -7.2042   -0.5952   -2.1728   -7.3147    3.2533   -1.1162
  189.7544
   -6.3418  -17.5410  -25.3463  -15.4273   25.7518   -7.8662   -6.1478   12.2147   10.0587    0.7293
  -40.4518   -1.2720 -315.9662  -76.4866  -10.4556  -42.6852   -3.3655    0.0992   33.3785   -1.1398
    7.0485   39.2757  -10.5087   -9.7958   38.9481   19.3991    6.8955   13.4861   14.4191   -9.8870
   11.1998  -19.2557   11.4553   35.8392    9.3390   -9.1640   38.9492   15.7672    3.7596   19.8167
   29.8913    3.7045    1.9174    4.9365    5.5402   11.8523  -10.8208    2.1361  -13.9908   -3.1615
   -1.6916  413.7992
   -4.3458   -4.7601   -9.9885   -7.3482   -2.0805   -3.6721   -0.8030    2.4387    2.4898  -32.7980
  -18.4415   -1.5013  -62.6444  -42.4227   -4.3456   11.7933   12.3680    2.0712   -5.1185  -14.8570
    2.4317    4.4724   -0.1908   -3.6524    8.2549    2.7967    3.4617    3.5515    2.7784   -1.0387
   -0.8589   -5.7367    0.0502   12.1855  -10.9527   -1.7598   34.2645    8.6845   -0.1914   13.3163
   12.7343    3.2287    0.6471   -9.9347   -0.2101    1.8900   -4.4629   -0.6531   -1.4276   -2.8120
   -1.7001   45.8208  209.8779
    2.8728   -1.9925  -11.9311    1.3855   -1.1391   -5.3698   -1.0502    1.9370   -6.6701   -1.0895
   -5.6662   -2.6323   -4.6497   -2.7697   -9.7206   -3.0029   -2.1936    0.3517    0.3711   -2.7376
   -3.4770   -0.6112    6.6521   -0.9207    2.6622    1.4969   -0.6152    3.7056    1.5401   -0.9853
    1.7747    4.2092   -3.2637    0.5529   -0.6279   -0.5255   -0.5055   -2.4101   -5.4090    0.6307
    5.2158   -0.7983   -2.5157    0.0832   -3.2372   -2.5272    1.0384   -2.2303   -1.3087   -1.0483
   -5.6838    6.7548    1.1916  196.9185
   -1.0601  -10.9680   -4.0479   -3.1047   -1.8995   -1.0844   -1.3594    3.8062    0.0070  -17.3647
   -7.9375    5.4084   13.6779   26.0089   -7.3690  -60.2722  -76.9914    7.4008  -10.8905  -35.5579
    0.7126   -4.8835   10.6724   -4.7844    2.8794    1.4576    3.2154   -1.0813   -8.3197   -3.0772
   14.8189   19.4178   -0.4452   16.0091   29.8346   -1.7613  -15.6518    0.6131   -0.9624   -5.1037
    0.5435   -0.4139    6.3255   -2.1435    2.6459    1.3060    2.5672    0.3185    1.1693    2.5599
    1.0484   -2.8197   -3.5185    2.1645  213.9362
   18.5514  -16.8376  -14.0887    5.9320  -18.4544   -5.3295  -22.1492   18.4505   -1.8599  -18.0161
   55.6418   13.0695   11.2927   11.6205  -27.5723 -107.8674 -298.5900   27.2829    3.7206  -25.0582
    5.2456  -16.8283   36.1382  -20.5924   15.4367    3.9213   14.6200   16.0226  -16.0902   -3.9205
   27.1956   43.7354    0.1744   49.2579   30.4056   -3.7266  -10.8581   -4.3519   -5.1280   -0.8587
   -5.3368    1.0991  -11.7676  -16.9877    0.3577    0.5261   -0.8815    0.4994   18.9968    1.0760
   -0.0807   -8.5366   -6.3828    4.1698   51.1704  385.3397
   -5.1735    5.2824   -7.0251    3.9644   -1.0707    1.9248    5.0207   -0.9496    1.6317    1.4167
    3.6456   -5.9867   -2.5209    0.6117    4.7429    3.9230    8.7331  -16.3346    4.2664    1.3493
   -2.8756    3.5088   -6.5200   -8.6403    0.0101   -5.2820   -4.0305   -2.0669   -0.9097   -1.8666
    0.5191   -4.7395    1.6742   -4.0457    1.1343   -6.1403    2.5190    2.7633    0.0249   -0.9904
   -2.4777   -1.3188   -0.6150   -0.4420   -2.1777    1.0782   -1.1211    2.5289   -0.9015   -1.0584
    3.7177   -1.1164   -0.0693   -0.4900   -2.5137   -9.7405  193.1240
    4.7687    0.5695    7.6806   -2.0064    5.9871   -1.5074  -15.6041   -1.3118    4.1315    2.7621
    4.3858   -3.6698   -2.0034    0.3899    4.0934    0.9768    1.3622   -1.5745   21.2077   23.9814
    1.2126  -51.8482  -78.4437    0.8257   -4.9966  -32.9224    1.2645    8.8514   28.8075   -0.8064
  -14.2148    4.1931   -1.8088  -13.1774   -7.2259   -0.8437    0.0155   -1.0183    3.6618   15.3430
    5.4132   -2.5433  -11.5885   -0.4704    2.8072    0.3547   -5.6937    0.5876   10.4422   -2.6565
    0.6311  -10.3916    1.3157    0.4958   -5.2594   -5.6198   -1.4251  206.0403
   21.1533  -19.7721   19.7469  -15.6496   -0.7100   -0.3981  -23.0703   -8.5382    7.2056  -13.9042
   -5.5237  -12.3774    5.0470    5.6692   16.6245   -9.7150    7.5101  -10.3761   42.6532   -9.4517
    4.2709  -80.4660 -354.5239   12.1845  -13.0779   -1.7481   -3.1630   17.7456   40.9555    3.5685
   -1.2199   24.8871   -7.3883  -12.7057   68.0214   -0.6644  -16.0683   30.2203    6.8528   34.9184
   21.0704   -4.8457   11.2877  -14.0713    3.1488    7.7639   -7.3600   -0.3035   31.4925    5.8304
    1.4377  -19.8468   -3.8393   -1.6487  -10.2496  -23.5820    1.5963   51.1751  414.5195
    2.8713    8.6071   -0.1845   -4.3646    1.2232    4.3645    0.0728    0.1391    5.7671    0.8318
   -3.4996    1.8052   -0.7920   -1.5684   -4.2186   -1.8334   -4.5693   -6.0827   -1.0931   -3.2491
   -6.2141   -1.9731   10.7337  -18.5506    2.1463    1.7102   -7.0672    6.7256   -4.0146   -4.6555
   -1.3986   -2.4683    1.0194   -0.4981   -2.2209   -6.0014   -2.9261    1.0691   -1.7876    0.3793
   -2.0217   -0.9906    6.6536    3.1339    0.1053   -0.4629    2.4754    7.0918   -1.9429    1.5529
   10.8415    2.3930    1.9541    4.3474    1.2937    6.4641   -7.4810   -0.8551   -7.2839  184.0953
   22.6193  -11.0909   15.7322  -28.1218  -30.5797   -4.0553  -32.5102   27.5718    1.5313  -11.4078
    2.8957    2.2571   14.9344    3.6861   -5.6631   38.8695  -11.9998    7.0000   24.3126  -25.4044
   -3.5023    3.7483    1.5876   -4.0733 -213.1233  160.6968   -7.7274   39.7819   -3.1958   -2.2368
   21.3381  -48.0587    0.1407    9.4492  -30.3901    1.6091   -3.8735  -14.4067   -0.0265   12.5432
   21.5239   -5.5342    4.3125  -23.9329    4.9916   -2.2193   -2.5744    2.2200   21.9176    0.0933
    1.0549  -23.1743   -1.2982    1.5431   -2.9537    2.8777   -4.1482   -3.6239   16.0690   -0.1330
  311.6440
  -22.4286   16.2438   -8.4922   21.6148   31.4912    2.6520   28.1680  -29.4544    2.2713   15.8920
   -4.3986   -0.5381  -13.8579    1.3596    4.8903  -21.8109    5.7456   -5.7714   -2.6939   -1.3024
    1.9997  -34.9251   24.3547   -1.2507  156.3900 -178.4329    9.0153   -3.2325  -22.5646   -0.5138
  -41.1051   53.1321   -0.8316  -21.4085   11.7882   -2.0920   -2.7334    4.3161   -0.4319   -1.3806
  -13.3001    3.5664   -7.6818   16.3329   -1.8905    2.7943   -2.4500   -3.1801  -15.7540   -3.7781
    1.5806   12.2903    2.6275    1.8763   -0.7552    0.3906   -0.2637   -8.0269  -20.9022    0.4556
 -104.4672  276.5699
   -0.7805   -8.3955  -12.5980    1.9816    1.6578    6.0958   -4.5197    2.5055    2.0452   -2.8692
    7.2603    1.7366    2.2671   -0.4410   -3.3205    2.4361   -0.0487   -1.3076   -6.0699    2.2784
   -7.5126    6.1385   -0.5872   -4.5228   -4.9679    4.6159  -13.7947   -3.1249    7.9531   -7.4484
    5.2852    3.9722   -8.2776   -0.0891    4.3820   -1.6782    2.4344    2.3345    0.6362    1.3738
    1.4231    2.2003  -10.9847   -1.7010    5.4377   -1.6668    0.0166    9.9023    1.6887    1.1810
    4.8598   -3.1656    0.4978   -0.1642    0.8532    2.1544   -2.8370    1.0458    3.8876   -8.3449
    4.0750    0.9328  185.0153
   35.4137   15.6883   15.9682   -1.4462   13.6090   -8.9808  -20.1943    5.8860   12.1117    1.3068
    9.3141  -14.9106   15.9242   -3.0414   14.4886   20.5557   10.7680   -5.1208   65.2762  -25.3963
    4.6321   40.6424   29.4112    3.7647    2.6389  -34.6292    1.0499 -310.4126 -116.2258    7.5588
   -7.2430   27.2494   -6.7566   24.5415   -2.2347   -1.2217   35.7396    3.3825   12.6470   -0.8526
  -10.8693   -7.3368  -10.6000  -12.1606    6.2932    4.9293   -9.2745    1.1825    2.5797    0.0148
   -0.4912  -50.8033  -10.1242   -2.6155  -16.0970  -27.3471    2.9255   11.3607   34.4804   -3.9051
  -37.4767   33.6123   -0.8873  391.8670
   15.7502    0.8630   12.1524    3.5386    3.8972   -2.3257   -3.0105   -7.0032    4.4279   10.2053
    3.7806   -2.9482    1.6245    4.2653    4.2162   12.6086   -3.7343   -2.3297   21.4272  -20.4652
    0.0049   27.8663    9.4409    0.3315  -30.5565  -16.4171    0.6152  -94.8316  -65.5966   -0.6110
   31.9784   15.8743   -1.6048  -13.9889  -13.7450   -0.8012    2.8863    1.2017    2.6167    2.0747
   -1.5028   -3.2621   -3.0906   -2.1699    2.9912    2.0622   -3.8920   -1.3398    6.7779   -2.0522
    1.3966  -12.1893   -0.4774    1.4083   -3.0977   -3.1535   -1.7884   -5.2399   10.2937   -0.5755
  -13.9186   -6.9615    3.9835   63.7073  205.8367
   -2.1757   -1.7675  -11.1528    4.9134   -2.3440    2.1763    0.9568    2.4575   -2.0875    1.4635
    0.1207   -1.1287   -2.9119    1.2781   -2.4464    0.7801   -2.6613    1.7069   -3.9620    2.3657
    0.1103   -2.1491   -2.1219   -0.2692    1.4598   -9.5186   -5.2583   -3.1275   -0.2466  -13.2668
   -0.7930   -0.9637   -9.1933    0.8979   -2.4142   -3.5902    0.0863  -10.3354   -0.2091    3.7227
    4.3772    4.1428   -4.7076   -2.5943    4.1147    1.9106   -0.1496    2.3139    0.8484   -0.2370
   -2.8667    0.0316   -0.0558   -2.0605   -2.2679   -1.0656    4.3690   -3.7181   -2.9422    5.0564
   -4.3217   -3.0400   -7.1620    0.9042   -5.6878  180.4220
  -17.7843  -10.4421  -10.1280   -9.8239  -13.6019   -3.9266   15.8637   40.7857   -0.3021   -7.4946
    0.6018   -1.3890   -1.9115   -3.2383   -3.1373    8.8869   -8.3448    3.1404   -3.8932    9.2719
   -0.1739   -6.6861    3.2113    0.4385  -11.6524    3.0063    0.8265   -1.3400    9.9020   -1.1518
   -2.6389    5.1305    0.7948    8.9842   -1.8638   -2.1732   -9.5964   -8.5334    2.9015   19.2579
   48.7274   -2.8303  -50.2181  -86.7828    2.9936   -4.7329  -14.4312    1.8608   -6.1284   -8.1160
   -1.1738    1.1469    0.4736   -1.4356    3.3946    7.0454    0.1483   -0.6476    5.3312    0.1995
    7.3056   -6.1965   -1.3393    1.1443    0.3313    2.2057  202.7601
   -8.3045  -18.5175   -8.7493  -38.2522   41.8382  -16.4849   36.1653   79.8017    1.9993   13.8987
  -18.7895   -0.6831   10.3012   -9.3596   -9.5545    1.4172  -38.6738    8.5438   -6.1373   10.4813
   -6.4643  -19.8435    3.9663   -1.1720  -19.9514    4.7255    2.9052   -1.5081   22.9138   -5.6569
   -4.4802    9.7590    1.0337   -6.7304    1.7160   -8.5724   18.0206   43.1047    7.3559    6.2747
   24.4152  -10.0045  -53.5998 -286.4156   12.8003   30.8112  -41.7151    2.3055  -18.2559   -2.0333
    0.3479  -12.6185   -5.5686    0.3426    0.7056   15.9205   -2.9231    2.1857  -13.0672   -0.0753
   25.3187  -22.3655    5.0855    0.7445   -2.1694   -0.1228   45.6944  347.0658
    0.2836    3.4458   -1.1008   -0.8781    0.9769   -1.3154    0.7596   -0.9688   -5.2912   -2.3238
    1.0833   -0.0842    2.3614   -2.4114   -1.3020   -0.8510   -0.1995   -2.4156    2.2683   -0.1779
    0.5888    1.5418   -0.0313   -1.1145    0.0586    5.0458    3.9828    1.1817   -0.0601    4.8229
    0.3195   -1.3229    3.1284    0.3958   -0.7658    0.1233   -0.3501    5.6780   -4.7148   -1.6322
   -2.0332   -0.5415    1.0566    3.0308   -8.8648   -0.4705   -0.6713   -4.1240   -1.1184   -0.4939
   -0.5521   -1.2018   -0.5282   -0.0761    0.9640    0.9372   -0.9168    1.9764    1.6277   -0.8478
    1.4199    2.3487    4.7952   -1.0016    2.9248    9.2980   -1.4798   -2.6540  194.8057
  -29.7181  -22.7539    7.7866   -7.9655    9.7903    9.0877   -1.0419  -17.0800   -0.7435    2.0682
   18.7224    8.5794   -2.2855    0.7848   16.5554  -11.6332   32.7291   -1.6327   22.4613    4.7993
  -15.0667   11.1777  -11.8917   29.3908  -13.9923    5.5367  -19.3330  -16.0252   -9.2383   12.8827
   -5.5116    2.0133   -3.1152  -15.1968   10.1168   18.0195    4.0844   26.4154   -1.6311   -6.6329
  -23.9579   -3.0358    2.9840    4.7650    5.2083    2.8239   -4.5229   -3.8890    1.6240    1.7443
    0.5499  -10.4372   -3.9831    0.1445   -8.9950  -29.6394    4.0329   -1.6511    6.2442    0.5133
   -5.1537    0.2431    9.5736    5.7291    0.8365    3.7949   -2.6025   -4.6565   -3.5278  214.9118
    5.1254  -10.6465  -36.3473   -8.7778   17.7832   -1.4841  -36.3797  -17.8025   -9.2783  -13.8152
    3.4264   13.8748   -7.4063   -0.7369    6.8066    2.1012  -17.3799    3.4164   -2.7719   -5.1003
    9.8488  -38.5038  -39.5093   10.1310   53.4838    0.4335    9.4795   -8.4163  -20.0512   -3.2911
  -10.4325   18.1941   17.0187    6.6963    7.7793    5.8916   15.4368    8.4029   -8.2041   29.1960
  -13.8933    8.4005   -3.9535  -38.9280   -9.3359   -3.3613    0.1112    1.0705   21.0636    7.9103
   -0.3282    2.2274   -1.4120    1.7121    0.7504    3.1071    4.1688   10.9650   16.6009    6.3283
   -3.2178    2.8100   -0.0811   12.5970    7.3175   -0.1585   13.0482   27.1115   -1.3286   16.2836
 1275.2102
  -18.3739   28.7213  -19.5324   -1.2039   15.5825  -12.0195    6.7010  -16.0004   -2.9027   16.0916
   36.3694   -6.0079  -31.6792  -30.1634   -6.3667   11.8624  -22.3712   -0.7842  -14.9733   42.4027
   -8.0954   27.5872   -2.8418   -1.7360   10.5706  -23.9797  -10.2241  -33.7497    3.3664    8.5778
   22.7036   -1.2612  -13.2161  -37.5728  -10.1382   -0.7759   22.1078    7.0753   -6.7847  -11.4750
   -4.7099    6.1802   11.5100  -36.0368   -5.4106  -12.6509   -0.7062    2.1239  -16.8160   -5.3121
   -4.4258    7.1261    0.6498   -1.1203   -1.4751    6.0902   -2.3994   -4.9553  -17.3296   -0.6756
   -8.3464   -1.3498   -5.5114   19.1921    0.7809   -3.6077   -4.9067   10.9359   -1.6673   29.5021
  -95.1535 1201.1057
  -13.6925   38.8476   -9.7749  -15.5629   -7.4401    0.3841  -26.6417   26.0199   16.7825   -6.4501
  -25.7847   -7.0551  -17.7466  -15.8452    8.7290    2.5933  -28.6684    2.9480   -6.2915  -11.9659
   37.1474  -30.3978   18.4585  -31.6945    3.3911    7.4690   27.6515   12.5198   -8.4101  -15.4527
  -17.4325   -6.0593   13.1061   11.9489  -14.8022  -17.8746   -2.4388  -20.2195   11.0282   12.5561
   30.2401   10.4727    8.4032   -6.6238   -1.2601   -2.9804   -0.6598   -0.6812    4.7695   -1.7993
   -5.9471   15.8931    5.2928    0.7079    5.8669   29.0424    5.4551    1.2808   -3.0275   14.8585
    6.2835   -1.1577   -0.4527   -4.1859    0.2789   -2.5742   -0.4804    1.0434    2.6540  -50.1712
   -2.0583   -2.3023  230.6016
   26.7938   11.8069  -55.5882  -16.2885  -30.5004    7.2229  -10.3651   16.5458    1.2299   12.9368
   -1.6751    4.5537   17.4370  -16.2343    1.7596  -20.1333    7.1945    8.8434    2.5767  -18.9095
   19.8563   34.0410   23.0495  -10.8411  -49.5604  -15.1185   19.2665  -20.6197    4.1444   -0.7440
   17.8126   13.1281    9.5505  -24.2180   30.1284   -3.4478    8.5668  -31.8057   -4.6339   20.9515
  -13.5169   25.0077  -14.2391   -5.6872  -19.1619   -2.5599   10.8963    1.0258   17.2043    5.0682
   -0.4854   -1.0931    2.1953    2.3223    3.7718    2.8961    1.9121   -1.7282   -3.8221    4.4966
   14.8608   -7.8307   -3.0627   21.4389    7.2482    2.4784    9.7309   29.3243    0.6885  -15.5659
 -807.7852  131.3446   34.7924 1390.1238
   -4.6849  -17.2789   -9.3035    4.1678   26.9988  -12.5545  -28.4351   11.4699   -3.2240    2.9981
   -8.3423  -13.9362  -29.1769  -13.7657   -1.4268   12.1329  -20.7261  -10.1778   -5.2100   12.4273
   -1.1345  -23.7841   -4.8146  -16.4728   19.5199   45.3269   -8.3376    7.6027    6.0673   -4.9633
  -14.2224  -13.7041   -5.0235    9.4893    6.8015   -3.1801   30.2454   10.0949   -4.4244  -11.7476
  -13.5813  -11.6161   -2.0064  -12.9794   -7.8223    3.7047  -11.7127   -1.3966   -0.1451   -7.7798
   -1.9212   13.2596    3.8173   -0.5540    1.0932   10.6346   -3.8743   -1.7334   -2.3077   -0.1652
    9.1063   -4.6444   -3.1473  -16.9272   -1.2101    1.9044   -7.6054    5.4515   -5.5266    4.5878
  291.1600 -238.4500   23.2326  -25.7168 1082.0242
  -18.5893  -35.9221   16.1707    7.9562   -1.9303   -0.9815    8.7897  -24.6095    1.4723  -12.4715
    6.6281   17.4383   14.2940    2.2583  -10.9467  -10.8842   14.0631   25.2286    8.7747   -2.1446
  -37.1413   16.4836   -1.2239   35.9438  -19.8143    8.2166  -29.2157   -8.8342    1.3550   21.0211
    4.4483    4.4784  -22.4673  -13.3459   14.2752   31.5764    0.5044   21.5001   -8.1457    2.8495
  -21.7488   -5.6522  -14.7892   -2.4201   14.1319   -9.4658    7.4148    0.2121   -3.7670   -0.6293
   -1.5215  -11.1022   -3.7369    2.1297   -1.7342  -10.9889    0.0405    0.0324    2.1676    0.5022
    4.4933   -2.5274    4.3859    2.9278    2.8008   -4.6738   -2.5948    3.1492   -0.9709   20.5716
   -7.1378   13.3257  -60.3809  -22.1627    1.3703  252.4359
  -20.0792  -37.3463    4.5091   -5.4355    1.6870   -2.8960  -14.7806  -31.0973    5.9921  -10.1583
   23.1584  -15.4991   13.8346    9.6051   18.6981   -8.4805  -23.3300   -3.5243   22.1563    1.8454
   -7.0106  -15.4261   30.5962   21.1606  -11.9846   13.8881   -9.9257   60.9847   -5.9476   12.2596
    7.4017   18.3200   -8.1851   16.8090  -59.5186    8.5394  -37.8023   43.3440    6.7878    2.1096
    8.5208  -10.5917   14.4435    5.2196    8.1813    0.7569    3.9009   -0.3675   23.2805    6.9755
    2.6876   -6.3192   -1.1422   -3.2495    7.6507   17.0195    3.7191   -1.1560  -10.7814   -3.5507
   12.1821   -3.6261    5.5957  -40.6103   -9.5557    3.7516   -1.5301   -7.7462   -1.6098   15.6443
 -134.2425   22.2252  -26.1732 -384.4054 -304.3440   33.5977 1323.7712
  -16.2979  -51.6457   11.6783   26.4418  -19.8892  -10.5455   12.1291    2.6989   -0.7634   -2.2418
  -21.1802   -8.1163   31.6214   -1.1560   -0.4659  -23.5181   69.3209   -3.8360   -7.5925  -17.4986
   -7.3255  -17.6127    1.9298    7.2827   24.0909  -20.4134   -9.6595   -1.2275   12.6346    4.8119
  -24.4487   -7.1276   -5.7417   14.1893   27.5053   -0.8103    9.9868  -18.3561   -0.7590  -20.3889
    0.3371   -2.0751  -16.1834   24.7275   -3.0971   -7.5974    8.9344   -1.9166  -14.9115    2.3895
   -0.1035   -3.9151   -5.8784   -1.0798  -10.2926  -33.7155    1.3263    3.5403   -6.7989   -5.1566
  -10.3866    8.1091    2.9456   -4.8448    0.5387    1.5672   -0.6689  -23.5335   -3.9513    4.9567
  -71.9057   99.9266  -12.2162 -206.9709 -407.1279   21.3190   -7.5097 1330.0881
  -47.6584   18.0776   -0.0319   -1.5443  -11.4103   18.5756   -6.1212    5.6572    5.1043    7.4115
   16.5562  -11.1131   -6.1906  -13.3278   38.4114    2.7755   11.1067  -27.2152   21.6612   -0.5514
   31.9055    2.6734  -17.3045  -10.7791    8.3567   -7.8695    7.9566   -4.6263   -1.7867  -17.9473
  -11.3478   -1.7881   14.7336   -2.6443    4.4534  -16.9197    3.4344   -3.9193   11.8316    0.1857
    0.7654    8.0712   -3.5535    0.7921   -4.8008    2.7627   -8.3086   -0.0401    1.6341   -2.5645
    1.2377   -4.7913   -4.7273   -3.5247   -4.9300  -18.5753   13.0336    3.9810   12.6508    3.3219
   -6.8922    7.8762   -3.6834    7.3109    3.2784   -3.8979   -4.5656  -11.2382    4.3369  -12.9179
    6.0641  -10.7961    3.4622    2.8696   -0.3891  -53.6758   -5.0266   -5.5443  231.9632
   13.1608   -0.2882   41.0975   41.0850    5.0945   -4.4304   36.4361   13.7928    6.4581  -14.6908
   -2.6209    6.8564    7.0024  -16.3442    0.6837   18.4270  -31.4676   14.1447  -42.1908   47.9852
   -4.0923   10.0279  -34.3764   17.2255   25.3007  -20.0544    0.1035  -25.4128    9.4541   21.8246
    0.5629  -22.5649   -7.9710  -15.3240   -0.6248   12.5589   35.4527  -33.3829    6.2303  -11.3065
   15.8261   -9.0343  -30.0154   18.2671    5.3307    2.2320    0.7008    0.3338  -31.7631   -1.6316
    1.9617   -4.1333    1.4114    2.7846    1.4412   23.6469   -0.0152    5.7082   -3.3810    0.2114
   -5.5000    2.8984    2.9304   24.0525    1.2209    0.2075   -2.3399  -20.1181   -1.1517    7.5261
  -21.7242  -40.7528  -20.3139  -81.3287  -89.2253   19.6998 -513.6956  126.0988   -4.3677 1282.0639
   -2.3860    6.3178  -39.9901   24.9536  -21.5661    2.0707   14.3621    4.4847  -13.3010   -4.6268
  -25.6713    6.5109  -34.4256   14.3129   -5.1076    4.3840   -2.1490    0.2022    3.2811   32.8088
   -6.2830   33.5203  -27.7654   11.5568  -26.1743  -13.1475   -6.6790  -16.0325    1.6186    6.5202
  -25.7631    8.3088   -5.5339    0.6505   -0.2185   10.0532    4.7207   -7.6718  -17.9655    1.6606
   19.1339   -3.7257   11.3338   14.4595  -18.2083  -18.9676   24.1141   -4.9289  -18.5094   -0.7476
   -2.6472   10.8648    1.3735    2.1585   -6.9779   -9.1951    2.2196    3.7915    3.7357    1.4977
    3.6199   -2.2501    2.8230   19.4124    5.1953   -2.4172   -4.1888  -19.8901   -1.8599   10.3570
  -26.0130   -4.6985   -1.3038    7.6660  -23.3566    8.2567  166.9128 -164.9933   17.8512  207.2612
 1207.3485
   -8.2437  -24.6699   -0.5312   -9.0894   -1.7756   -2.0803  -10.4542  -10.8715    1.6619   -7.5330
  -30.6377   27.2211    0.2101    3.0181  -32.9552    1.0746  -35.2169   36.0742  -17.5479   -3.6627
  -29.1115    2.7222   17.4881   10.7391    2.0585    8.4432   -9.9125   12.6410    7.8582   12.6542
   12.9543    5.2664  -14.9126    2.7505   -5.2839   19.9702   -1.6983   -1.0030   -8.8882   11.6267
   -0.8295   -0.7400   -5.4274  -16.7604   11.0304   -7.4319    3.5460    3.8327    1.4406   -1.7377
    4.0713    7.9415    0.7912    7.4019    9.4292   23.4456  -12.1912   -1.9280  -16.3718   -2.6441
    7.8875   -5.5620    2.0595  -13.0744   -3.5080    2.6436    1.5986   11.9282   -1.5757   -8.9890
   -0.3961    4.4805  -24.6046   -7.3941   -7.1790   24.7262  -11.6168    5.9917  -57.7574    8.7251
    0.5723  232.9076
  -11.5125    0.6630   14.4900   -5.8411   -3.3403   -8.8620   28.2416  -17.2203    1.9624   -6.9854
   10.8888   13.6119   -4.0748  -27.9308   -4.4251   -7.4040   14.2364   24.3083   -0.4637  -27.9236
   -2.5607    2.8307   -7.7960   20.5240    4.2658  -10.9329   11.5528  -15.2294   -8.7211    4.5124
   24.9614   -5.7102    9.8611    5.2912  -12.1420   13.7896  -11.6778   15.7839    7.6714  -13.5015
   -9.6600  -16.4892   10.9564   -0.1406   14.4803   -0.7183   -5.9922    0.9645   -9.8711   -8.2432
   -2.1344   13.5107    2.9773    3.9865    5.0327    3.3290    4.6049    1.0121   16.8431    2.8784
   -8.4890    7.4774   -0.0663    3.6693    2.1575    2.4948   -9.6103   -8.0521   -3.0456    1.7955
   54.2128  -26.8083   -8.5185  -22.0763   -5.0655    5.0296 -150.2813  -70.4933  -11.9574 -589.2420
 -444.0868   30.8527 1167.3935
    5.5873  -35.9145  -44.7982  -19.5616   -0.0245  -18.7761  -10.1423   15.6264  -12.6766   30.8704
  -17.4257   12.8847  -44.9530   26.9946  -37.7978    3.9910    8.3194   28.5863   17.2334  -14.9318
    0.9975  -28.5639   12.6344    2.1664   10.6747   13.0050   18.8220    2.5897   11.7199  -14.2152
    9.7654   19.4433    7.4328    3.6940    4.5928  -12.5552   -7.2562  -21.5723    6.6919   -8.0873
   -6.8217  -13.9335  -16.4647  -27.1269    9.8270    6.2775  -13.7119    0.0200    4.0456   -5.8281
   -2.3504   23.4829    1.9963    2.9120   -0.8281  -19.0643   -8.4188   -3.9425    4.8067    7.0624
   -0.3792   -0.3396   -0.3375  -17.4803   -0.4134    0.4618    6.9885   31.1917   -2.9791  -33.4489
   -1.6720  -33.0728   21.9713   -4.6728   21.4723  -26.6779 -115.5669   63.7274  -22.0824 -374.2612
 -541.4385   46.3329  259.7791 1249.9519
  -30.3194   43.0667   -8.9492   -9.0834  -14.2714  -12.6338   -2.8848   -7.3980   32.1575    3.4014
    3.8049  -34.7421  -10.9971  -14.1787   29.1900   25.4897    1.2705  -23.6514   -3.8121    1.1989
   30.7789    0.7760  -19.3682  -27.8745    9.1585  -11.8219   14.8023  -13.2281   -7.5741  -13.6680
  -14.0332  -17.6376   13.4417    2.1271   -1.5019  -28.9877   -3.1832  -11.8732   31.3041    5.6915
    5.8773  -10.1570   11.9976   -9.6204   15.6011   -2.4178    1.3157    5.3208    2.0978   -1.4922
    3.1857    2.3152   -0.2899   -0.4554   -2.9609   -7.2719    2.6522    5.1806   10.8369   -4.7873
   -5.6989    4.5128   -4.5807   19.6023    4.1165    1.8743    0.1516   -2.8993   -0.3529  -20.1317
   -9.6160    3.6207   25.2455   13.1417    5.7732  -43.9974    5.8389   -2.8396   20.2585  -11.3552
  -12.2261  -47.8209   -9.5177   -8.2010  237.5074
   68.7098    0.8706   10.9321    0.1640  -29.1474   -3.0514  -10.6844   38.9123    0.2184    5.2480
   20.7085   -9.0222  -18.4472    0.1992    1.4474    9.5314   -3.5787    3.1361   20.9966   17.2906
    0.2125    9.9266  -13.6293   16.9601    4.2048  -21.8930   -9.5298    8.9303   21.7001    4.4158
   23.9090   -6.1015    0.7157  -25.1618  -21.0368   -3.2374   -3.5289  -12.6575   13.4578  -35.1486
    9.8505   -6.9103  -38.4769   -8.6953    4.3149    8.7079  -14.4962    2.2049   18.7794   -2.3794
    0.1852   -1.8101    0.5953   -5.5757   -0.2224  -16.3735    3.1134   -0.9337   10.2910   -0.3455
   -9.9328   12.7578    3.2917   -9.9211    0.0611    1.8422    0.4394    5.8535   -0.3230   -1.9349
  -33.9736   15.9512  -10.7684   -6.2498   -2.0669   -1.9538    5.4379   21.4303   -1.2821    4.5414
  -41.3185    0.2638 -101.7512   90.0175   23.3430 1297.0538
   -6.4684    4.6856  -31.6978   -1.5489  -27.0915   -2.2942    2.9392   -3.2380   12.0423  -18.1107
  -19.1957  -11.1483   41.2710  -13.6952    6.7543  -29.6421   10.4327    1.7662    1.2918  -19.5548
    0.0464    7.2012  -18.7882   -0.3700   -8.4084   -6.7944    5.3786   -8.5825  -14.4388   13.0654
  -29.4042  -16.7244  -18.0435   30.8781   33.2452    3.6386  -11.7041    2.9132   -8.0254   41.5754
    8.2981   18.8777   34.6481   20.3003  -12.2722  -15.0346   19.5229   -5.1700    2.9436   -0.2102
    0.7726  -16.7033   -0.1443    1.4440   -2.2913    1.7178    0.4701   -5.8532    1.3291   -1.6003
   -6.8122   -7.6995    8.0700   13.2140   -6.8512   -1.6056   -1.4906  -23.9321    1.0210    4.5794
   13.8476    5.7983   -4.1023   10.9146   24.9404   17.8780   69.6620  -29.9857   -9.6401 -118.4149
 -159.3008   -8.8274  158.9412 -505.0487   15.7179   -2.5586 1353.6764
  -32.7774  -41.6508    0.5684   -3.3049   -5.1625   29.8132  -12.6173   -4.4144  -25.5778    3.7408
   10.5771   35.1713   11.4532   -6.6632  -10.0189   -2.8215  -18.3062    2.8846   -0.4683    2.1731
  -26.3920    8.9360    8.5587   16.2210   14.1224    0.8903  -19.7998   15.8724   15.2116    4.2037
   15.9312   14.3550   -3.9624   -1.6995   -4.2832   17.9587    8.3629    5.1050  -22.7318    2.2556
  -15.5256   11.9480  -18.1011   -5.9050  -12.8402    4.0666  -10.4927    3.0395    7.3514   -1.2205
   13.5325  -10.6267   -6.4945    3.8368    3.0895   -1.3384   -9.2100   -4.0549  -16.2726  -13.1761
   -1.3761   -0.6967   -1.6943  -21.2991   -7.0652    5.6587   -0.5753    0.4895    1.0325   17.4334
   15.5890   -2.5453  -27.1591  -14.8477  -10.8540   14.4882    5.7452    1.5304  -14.5766   -0.2547
    0.7854   -2.2070    9.0389    6.1733  -54.3558   -4.9571  -16.4261  221.6129
  -19.8667   16.1173  -21.3630  -19.8963    4.5712   -0.6170    1.4844  -32.5003    4.3193   12.5604
   41.6788    3.0491   14.2861   -6.7762    1.9766   12.3141  -35.0982    9.5828  -26.5379    2.7297
   -2.8823    6.2258   -6.4870   -5.8772  -13.2554  -26.2937    3.5641    5.5459    1.5636    4.7771
   -0.6732  -15.5296    3.6898  -13.5507    2.8315   12.4739   -0.6859  -13.8722    3.0781   -1.0819
  -29.5951    2.8425   -1.3936  -24.3814    0.4581    7.6534  -10.2097    2.6898    6.9866    1.1834
   -2.2930  -10.6422   -6.6296    1.3744    6.6973   17.9974    0.2181    4.3244    5.2561    5.6368
    4.4285   -3.6668   -3.2526    7.3736    2.7100    0.9960    3.3484   21.1764   -0.5488    7.8144
   -8.5291  -23.9170   -0.8016   -7.6516   -3.1373    8.0829   16.8106   -9.5248   -8.3809   15.1383
   -7.6814    3.8899  -16.3128  -40.2445   -3.8102 -377.5578 -271.7785   13.0146 1102.3721
  -24.4997   31.9330  -43.3375   10.4930   49.1908   -1.6235  -41.4641  -42.9602   -7.1051  -25.2242
   -4.7973    4.3065   29.5208    2.3174   11.9518   -2.7622  -27.0745   -2.8079  -16.5213   -8.9711
    8.7765  -18.4176    8.6413   -1.8841   22.4089    4.0494    4.9428  -11.2551   -3.3366   -2.6286
  -22.6767  -21.1119    9.9846   20.4647    7.0046    5.6618   11.3702   18.7062   -5.4580    5.1402
  -11.2812   -1.5971   17.3191  -14.8587   -2.5083   -6.0709   -0.7704   -0.9722    5.9833   -0.0660
   -0.2991  -25.3564   -5.3982    0.5983    1.5146   21.1061    1.4171    1.1949   -5.2144    4.8802
   -7.7035   10.4438   -2.9180    3.4812    4.0144    0.3069   -1.2564    4.2020   -2.3698    3.9400
   -3.2724  -14.6965    7.8134    3.6845   12.3167   -5.8870   -3.6875   20.3200    9.1597   45.4579
  -15.2845   -6.7642  -48.5210  -84.1741   -6.4601 -170.5729 -380.0358   22.5575 -114.2158 1397.4036
  -22.5148   22.5463  -15.4870   -3.9486  -12.7779  -27.0913    0.0998  -15.1471   31.0374   -6.6155
  -13.8799  -28.0743   -4.4828   -2.0666    1.9102   16.1022   -9.7991   -2.1082   -5.5179    2.5033
    3.8454    3.2049  -11.3842  -14.9338   -0.6997   -2.9350    1.6016   -2.0120    3.6246   -2.2480
  -11.6748  -15.5995   -2.4568    4.5894    5.7389  -15.1364   -3.9247   -8.8546   26.1552   14.2592
    4.0810  -19.1495   -1.0617  -22.1309   26.8574  -10.1406    8.7651    9.3631   -0.1532   -1.2953
    1.9559    5.9402    1.0628    0.8772    2.1281    3.8669   -4.3894    5.5213    6.9435   -8.0349
    4.2859   -0.0969   -8.1190   11.9425    4.4441   -1.5063    1.8246   11.9673   -0.9149   -4.3470
  -12.0029    1.1701   12.2212    0.8997   10.7836   -3.2410    4.3689    0.7636  -13.6318    1.1752
  -11.4165   -9.7507    4.2603    4.9671   13.7749    7.3766    7.7172  -50.7214   -2.1552  -11.9257
  217.0109
  -27.0525   43.4628    6.2409   10.8918   -3.5314   -5.6342  -54.4316    0.5583    0.2513  -16.8890
  -13.3998   -1.8098  -21.2921  -15.2731  -10.4712   -9.2202  -44.7037    9.4342  -17.6125  -18.7187
   -6.0007  -13.5380  -13.9556    5.9301   25.8985   27.6530  -17.1980  -12.8928  -22.0347    2.0618
    6.6427   -3.1829   -0.1150   26.5756   -0.7637    2.2750    2.6441   -0.3389   -2.6393   52.6656
   -1.5023   -4.7412  -32.8967  -17.7686    1.8272   -2.6791    3.9493    2.1407   34.5756    6.6977
   -4.9534   16.8853    3.0402   -1.9693    9.5589   29.3336   -1.1705    7.7481    9.2671    1.4718
    2.7544   10.3872   -1.3023   -0.8179   11.1940    0.1835    9.4635   20.0918   -1.3698    8.3372
  -40.6054    2.7467    2.1071   32.1418   40.2629   14.5002  -10.2859   17.0532  -14.7846  -47.3373
   14.6825   15.8682  -24.5043   -8.8780   -2.1404  102.0681   28.4123    4.5189 -247.8842  111.0379
   16.2592 1172.7786
   17.0335  -10.8219  -15.1783  -10.7511  -24.2676   -5.8851   16.2583   19.4483    4.2973    4.0635
   65.0092  -10.4474  -45.0791  -34.6289    8.3202   38.8411  -11.9766    3.6153   14.7731  -22.7655
    8.9862   -9.3144   12.9718    7.2883  -15.7978    7.6331   -1.1264   19.1000  -34.4855    7.8378
   13.3168    5.1239   -0.1652  -33.7797  -16.6038   -1.9684  -11.7014    2.9698    0.1978    5.5749
    6.2415   -2.8795  -31.1059    6.9811  -13.2457   15.4965  -19.2959   -2.8738   11.3377   -1.2421
   -0.3852    5.9162    2.3528    0.3243   -3.2872    1.6723    3.5652   -2.8566    7.5074   -0.3470
  -11.6500    7.8622    5.4100   -9.4141   -3.6382   -0.7145   -4.9556  -10.6504   -2.4037    8.8843
  -27.7246    8.8590   -1.0595  -21.9921   -6.0490   16.8153   28.1665  -11.0187   -2.0698    0.3739
    4.0722   -5.2502  -27.6823    9.6879    2.0573  -91.5728 -173.9947  -17.0208  276.3256 -829.8816
   18.4254 -136.5761 1340.7054
  -17.8528   -6.1238   21.9899    9.6954    1.7594   30.7852   -9.9688   14.9629  -26.3523  -10.5862
  -11.9821   25.9124    4.7219  -13.3479  -11.2820    0.7723  -17.1985    2.7895    1.8607   -5.1126
   -2.9583    8.2805   -7.1588   -5.5825   -4.6916    9.9644   -1.6171   -2.8734    0.3604   -3.4018
    6.9292   -4.6523  -11.0291    1.7636   -4.3922    9.3228    9.9049    3.7953  -32.0489    5.6983
    8.1820   34.7667  -19.2425    0.4327  -34.4426    2.9524  -10.0748   -0.3177   -2.2163   -5.2482
    3.6925   -8.9140   -2.4250    0.3128    0.0707    5.2931    1.3366   -1.9497    0.4684   -0.5936
    0.5436   -3.0498   -6.9048   -5.4782   -2.6066   -9.7975   -4.6356  -15.4398    9.5169    0.3351
    0.8460    3.1102    4.1305   17.8206   -2.0444  -10.2105   -8.9509    3.7729   -1.8608    0.6627
    7.5420   -7.6275  -18.7731  -15.4126  -29.4986   -5.0398    9.5758   10.0752   -0.6267   -4.2330
  -43.9972   -4.3178    7.4488  233.0661
   39.2850  -17.5661  -31.1200   22.8031   14.0572    9.5864   -7.8431  -30.4493   -9.2857  -11.5148
   23.8687    7.3432   -5.7981    6.7843  -15.6379   10.1153  -17.2484   11.9072  -17.2856  -12.0393
   -4.0079  -25.4089  -30.9483    2.8708   39.8971   -0.1464   -4.4083  -12.2680   16.1331    8.8588
    7.5898    6.3367  -11.7181   13.7433    9.8445    2.4317  -18.2020  -30.4121   -3.1164  -27.2975
   45.6498   12.4913  -27.0854   -9.6632   -4.3796    4.9567   -1.7358    2.6159    7.6403    4.4404
    1.9042   -2.7573   -1.7028   -2.9334    3.3067    2.9956   -1.1543   11.6905   20.8294   -3.6523
   -1.1338   15.9480   -3.5324   -1.4226   12.9508    3.9953   -0.6730   -3.1504    0.0001   -6.1570
    1.4293    4.9714   -4.1516  -33.4798    5.7902    4.0056   39.5720   33.5245  -17.8078   -7.1957
  -34.3295   14.2416  -11.8683   34.0320   -4.8325  -66.1688  -93.3676    4.2172  -16.6080  217.7713
   -7.6300 -602.1514   46.4273   23.2766 1273.1923
    8.3397  -16.1536  -19.0148   23.6492   26.6519   -6.8358  -11.9070   34.1771  -15.3910   10.0988
  -46.2453    5.5949   -2.3604    7.2304   -8.6895   16.9276   -6.4216   12.8567  -14.5769   -2.1036
   -6.2293    4.0300  -13.0024   13.6989   -6.3038   10.4520    9.5696   -4.0509   -2.2575    9.9408
   44.5526  -11.1480  -21.1290  -33.0366  -29.3685   -0.2283   -9.0640   34.5853   -4.2379  -29.3066
   37.4574   -2.7396  -10.3615  -32.8788  -14.0230   11.5981  -11.6380   -6.3701   -4.8661   -1.7370
    4.2919   -9.4464   -0.8228    2.0022   -4.0160    4.8862    2.0816   -1.8133    0.8958   -3.4319
   -2.2958   -0.0538    8.0171  -13.7300    0.1444    4.0090    5.1214  -14.2818   -4.5285   -6.2482
  -19.2308   16.7050   -6.6240    4.4686    1.6187    2.4135    9.8864  -14.6178    0.3705  -10.1344
   15.5425    3.6237   17.4311  -22.0357    2.4034  -67.6674  -19.6969   -4.4257   95.7828  -46.3418
    7.8847  150.8207 -155.1716   25.4039  133.1382 1212.4657
  -37.8526   -7.4555  -17.1316  -16.2316  -20.1378  -23.9485   -4.6498  -14.1696   19.0808   10.4136
   12.0943  -24.7123  -12.6960    3.2297   10.7154   -6.7094   -6.1550   -5.6034   10.9034    2.0536
    1.9812  -11.8811    9.8991    3.9976    7.7509  -19.0892   -7.2656   -2.6751    1.0043   -9.2147
   -9.1816   18.7960    4.5649   -6.8404   -5.7391  -11.0653  -11.1338  -14.4420   28.3420   -0.1585
[...]
   -8.1839    1.9773   -0.2310   -4.3661   12.7392   -1.2235    6.2958  -30.5832    3.1220  -22.3234
  -13.2708   -0.0008   10.6237   11.1002   -1.1390    5.2741  -21.3722    0.4542   -3.0792    7.6069
    1.1671    4.9882   -0.9471   -0.5491    5.0644   -3.2056    1.5984   -3.0340   -8.1499   -0.7581
    5.4300   -3.1833   -0.5161   22.4240   -3.4072   20.2347   -5.6815   26.7132   38.7981    6.0236
   34.9527    0.9375   -6.0020   -5.0097   -8.9987    3.7581  -28.4306    6.4678   -0.2096    8.8209
   -4.0302    1.8556    1.5724  -39.5678   -2.1749    7.7009  -44.5409    1.9306   -8.1293   15.3395
    6.0015   -8.9944   14.7060   -6.8040   -5.0101   13.5138    4.3953  -20.3001   88.5695    5.7335
    2.0627  -10.2428   -8.6792    6.8704 -249.7374    5.1677  -86.9000  -16.2817   -0.5338    7.7873
   -2.2409   -0.7088   -4.5064   -2.1906   -0.0227    2.9969  -19.1660   -0.4183   -6.2511   21.0729
    0.7876    5.5693    6.5127    0.8197   -7.5746    6.9557   -0.2069   22.0304  322.3114
   -1.3299   -4.2138    4.5768   -1.8464   -1.0803   -2.5856    0.0644   -5.0504   -0.2211    0.4929
    1.3759   -1.2107    2.8609   -2.9426   -0.2171    0.7903   -0.1917   -2.6254    3.1958   -1.8056
   -3.3136    3.5823   -3.1287    0.2054    2.4667    3.9595   -0.5600    1.7494   -0.5408    6.1029
    1.8992    0.4139    2.8252    0.8952    2.2243    0.9763    1.1479    6.6308   -0.5785   -1.6426
   -6.2938   -4.4508    1.5305   -1.0674   -1.4001   -1.4140   -0.1034   -2.5930    0.6746   -0.2627
    0.5779    0.0865   -0.7316    0.3343    2.0909   -0.3514   -1.8343    2.9750    2.6322   -3.1332
    2.3003    1.9342    4.8768    0.8639    3.0704   10.6663   -1.1145    0.8764   -5.8604   -1.8394
    1.1019    2.1017   -3.0900   -1.9510   -0.8485    3.1395    1.4703    0.8254   -0.4668    1.4140
    4.3362   -1.9950   -2.8870    1.4477   -2.3414    0.4403    1.9535   -2.0885   -3.7349    2.6204
    1.6966   -0.0237    2.3308    3.9158   -3.1825    0.4454    7.1042   -4.6793    0.9995    1.2841
   -0.9936   -1.8319   -2.5147   -0.4663    0.8428   -2.9228   -1.0593   -4.6898   -7.7057   -4.3089
   -2.6497   -8.0036    0.0133   -2.6723    1.6265    1.2078   -2.6765    1.5445    0.4136   -0.9456
   -2.7876   -0.2110    1.7090   -5.3320   -1.6253    2.5213    2.9939   -3.6699    1.1949   12.8426
   -4.1397    1.3088  -11.7323    2.2803   -2.8361   -2.6235   -3.0140    1.6432    1.6183   -5.1896
   -2.4149   -0.2882    0.2281    5.3679   -0.2834   -1.0171   -4.9771   -1.9334   -2.4669    6.1192
   -2.3064   -0.0301    1.1085    1.9426   -0.2081   -4.9117   -1.7980    3.0099    1.1939   -0.4791
    0.8772    1.6397    3.7226    3.4407   -2.0041   -1.5764   -1.1647   -4.4574   -2.0800   -4.2969
   -1.9709    0.4082   -1.9615   -4.7017   -0.3507   -8.4895   -0.6451    0.3393   -5.9178   -1.7980
   -1.0232    0.1529   -0.8068   -0.8891    0.3231    0.7926   -0.7464   -0.8175   -0.0258    0.5207
   -0.4076    1.4314    0.9549    3.5694    1.0983    1.1582    5.3527    1.0661   -0.8007  192.5683
   15.4541    5.9992  -11.1420    9.4936   14.2508   -1.9186    9.6328    9.1568   -0.7290   -2.4026
   -5.6921   -2.2873    2.4516   -7.9473   -1.0625    1.2798   -8.7429   -2.1173   -1.0222  -10.5569
    2.6028   -2.9153   -5.0154   -4.7487    0.9160    4.4785    2.0282   -6.2565    2.1632   -0.6209
    4.4436    1.7956    0.6817    5.0176   -4.8450   -2.4786    2.2117   -1.8120   -1.0622   -2.4507
    4.1871    1.1043    1.3933    4.2413   -3.3853   11.1551   -1.1680   -0.4263   -6.8787    0.9422
   -1.0797   -0.7192    1.4382   -0.3198    1.4907    8.5091   -1.9835    5.2635    6.7196    0.4652
    5.8933    1.6870    0.5925    4.1947    6.5504    1.5687    7.2425   -8.1539   -0.9050   -3.8955
   -9.1881    9.1269    5.9544   -6.8966    9.8105   -3.3389    0.5595    1.1920    2.9047    3.4180
   -5.1866   -2.1549    2.0642   -5.2467    3.0098   -2.3681    7.4694   -3.5290   -0.7927    2.0710
    0.7377   -3.9690    5.3186    4.0260   -0.6658   -2.2187   -2.2542    0.3936   -4.3694    0.5049
    1.9434    0.7782    2.2792   -0.2694    4.4839   -1.5273   -0.7574   -5.4074    1.4779    2.6093
    3.5877   -0.0789   -0.4438    9.1185   -1.3855   -1.8380   -6.3864    0.9474   -0.7534    0.7663
   -0.5805    1.5794   -1.5351    0.3256    2.1794    2.0923   -0.3503   -4.9053    0.3581    1.6105
   -3.9839   -1.2649   -1.8003    4.6652    7.4087  -21.8105   -3.3957    1.6923   30.6737    3.3912
   15.3621    2.0765   -2.6323  -13.9413   -5.2939    1.1639  -13.5366   -1.7171    0.2094    5.6339
    4.3904    1.0400    1.0830  -15.1655   -1.9818   -4.7025  -16.6876    1.4378   -5.9352    0.4376
    2.1879    2.6769   -3.5996   -2.5621    0.7084   -8.6242    0.7984    0.6875    4.8916    2.5965
  -10.2812   32.0845   -3.7749   19.5387  -77.5950    1.7708  -49.4052   -9.2982   -0.2331   -5.0107
   -6.0616   -0.9290    1.7861    1.5083    0.3088    6.8583   -2.0507   -0.1114   -0.7788    8.8434
    0.9077   -2.5356   -3.9963   -0.2146   -6.6075   -6.9952    0.2960    2.4757   36.8246   -1.1605
  205.4748


      MOLECULAR POINT GROUP   :   C2  


          ALPHA EIGENVALUES  
 -50.39241 -47.03248 -46.59398 -45.50509 -44.34327 -44.20468 -38.93160 -38.73496
 -38.64578 -37.29770 -37.17618 -37.00919 -36.96222 -36.72173 -36.58404 -34.20437
 -34.12688 -34.06688 -33.98860 -33.92615 -33.92184 -31.93380 -31.72602 -31.66275
 -30.86461 -30.80097 -30.74222 -30.63780 -30.53060 -30.52447 -30.12197 -29.65186
 -29.59207 -28.65361 -27.06618 -27.02142 -26.87413 -26.85611 -26.76117 -26.11450
 -25.95247 -25.88699 -25.34832 -24.91421 -24.82874 -24.80086 -24.64175 -24.63632
 -24.37226 -24.23011 -24.22212 -24.16939 -24.11552 -24.03529 -23.68206 -23.29551
 -23.00862 -22.94279 -22.93660 -22.80320 -22.79481 -22.74278 -22.62834 -22.61286
 -22.54697 -22.45219 -22.36587 -22.35706 -22.33710 -21.98375 -21.84091 -21.82037
 -21.05666 -21.01609 -20.87662 -20.81387 -20.78171 -20.75952 -20.59517 -20.56979
 -20.43023 -20.22359 -20.17597 -20.04722 -19.89650 -19.88472 -19.72295 -19.65830
 -19.48818 -19.47875 -19.31249 -19.22800 -19.22367 -18.20484 -18.14343 -18.11252
 -17.80891 -17.76838 -17.64907 -17.41091 -17.26578 -17.22088 -15.33394  -9.38137
  -9.35369  -9.27781  -9.23917  -9.15741  -9.14213  -8.63953  -8.52553  -8.34074
  -8.33782  -8.09059  -7.91569  -7.90865  -7.61275  -6.99442  -6.84470  -6.83747
  -6.36214  -6.26085  -6.19734  -6.09558  -5.99533  -5.63924  -5.63471  -5.46615
  -5.46395  -5.22231  -5.07262  -5.05441  -4.91939  -4.90887  -4.54559  -4.42996
  -4.40661  -4.34164  -4.32042  -4.23228  -4.22793  -4.19867  -4.19089  -4.17853
  -4.11245  -4.06896  -4.06727  -3.92226  -3.89091  -3.84898  -3.73935  -3.71635
  -3.69163  -3.59595  -3.58399  -3.53840  -3.52714  -3.48846  -3.47975  -3.39063
  -3.29672  -3.29506  -3.24353  -3.21379  -3.20979  -3.07908  -3.07436  -2.95047
  -2.83670  -2.82838  -2.78886  -2.78309  -2.71499  -2.69017  -2.52591  -2.52000
  -2.42587  -2.24682  -2.24533  -2.24401  -2.22683  -2.17502  -2.17478  -2.04621
  -2.03141  -2.00114  -1.99892  -1.98219  -1.97831  -1.87851  -1.79956  -1.79642
  -1.73617  -1.73455  -1.66452  -1.52825  -1.52646  -0.82911  46.50956  47.44183
  47.69866


           BETA EIGENVALUES 
 -50.22653 -47.12236 -46.65568 -45.42943 -44.44199 -44.15785 -38.92984 -38.73270
 -38.64442 -37.29943 -37.16765 -36.99724 -36.94060 -36.71502 -36.56454 -34.20034
 -34.12669 -34.05372 -33.97932 -33.92097 -33.91407 -31.90759 -31.70693 -31.64781
 -30.85450 -30.79846 -30.73888 -30.59377 -30.52551 -30.50424 -30.10733 -29.62997
 -29.56257 -28.54346 -27.05926 -27.00491 -26.87231 -26.84540 -26.72744 -26.09605
 -25.92736 -25.86208 -25.34000 -24.85928 -24.81618 -24.76644 -24.62198 -24.58920
 -24.36823 -24.20539 -24.19695 -24.12308 -24.09309 -24.01406 -23.67675 -23.14140
 -22.93126 -22.93018 -22.91463 -22.79715 -22.73500 -22.59952 -22.54390 -22.53468
 -22.51254 -22.42057 -22.32372 -22.31577 -22.30691 -21.97739 -21.83317 -21.80073
 -21.01439 -20.95395 -20.81518 -20.80108 -20.74207 -20.70058 -20.56904 -20.53489
 -20.42764 -20.18570 -20.11642 -19.90595 -19.89238 -19.78011 -19.60814 -19.49543
 -19.37300 -19.35725 -19.27842 -19.19192 -19.18894 -17.99549 -17.82214 -17.79686
 -17.47166 -17.31005 -17.29152  -9.73247  -9.69096  -9.44226  -9.26034  -9.13546
  -9.10758  -8.79917  -8.74362  -8.69913  -8.36400  -8.14431  -8.14318  -7.94156
  -7.85584  -7.82781  -7.78737  -7.69214  -7.33849  -6.97157  -6.82452  -6.80764
  -6.32682  -6.24078  -6.17561  -6.07166  -5.96967  -5.62512  -5.50470  -5.45126
  -5.44812  -5.19950  -5.01919  -5.01498  -4.82801  -4.75594  -4.50347  -4.42475
  -4.37943  -4.30930  -4.30312  -4.20647  -4.19767  -4.18274  -4.17706  -4.15822
  -4.07616  -4.04635  -4.04538  -3.90865  -3.85264  -3.82957  -3.73570  -3.69694
  -3.63888  -3.58875  -3.56953  -3.51891  -3.51304  -3.47191  -3.46846  -3.38952
  -3.25923  -3.25759  -3.22446  -3.21125  -3.19980  -3.06706  -3.06126  -2.93675
  -2.82386  -2.82198  -2.76086  -2.74943  -2.65693  -2.64795  -2.48329  -2.48053
  -2.42654  -2.24268  -2.24130  -2.23993  -2.22227  -2.16906  -2.16882  -2.04478
  -2.03225  -1.99902  -1.99723  -1.98271  -1.97992  -1.87867  -1.79040  -1.78936
  -1.73420  -1.73259  -1.66510  -1.52831  -1.52658  -0.13237  47.86392  48.59609
  48.73111


              NET ATOMIC CHARGES AND DIPOLE CONTRIBUTIONS

  ATOM NO.   TYPE          CHARGE      No. of ELECS.   s-Pop       p-Pop       d-Pop       
    1         Mn           0.925714        6.0743     0.78510     0.46724     4.82195
    2          C          -0.185077        4.1851     1.09560     3.08948
    3          C          -0.011085        4.0111     1.10527     2.90582
    4          C          -0.020865        4.0209     1.07245     2.94841
    5          C          -0.116916        4.1169     1.09203     3.02489
    6          C          -0.097542        4.0975     1.09430     3.00324
    7          C          -0.026608        4.0266     1.07219     2.95442
    8          C          -0.020129        4.0201     1.10378     2.91635
    9          C          -0.182762        4.1828     1.09669     3.08607
   10          C           0.089787        3.9102     1.10868     2.80154
   11          N          -0.385730        5.3857     1.63871     3.74702
   12          C           0.067235        3.9328     1.06986     2.86290
   13          C           0.075881        3.9241     1.07230     2.85182
   14          N          -0.319974        5.3200     1.56539     3.75458
   15          C           0.094264        3.9057     1.10900     2.79674
   16          H           0.223637        0.7764     0.77636
   17          H           0.218330        0.7817     0.78167
   18          H           0.215213        0.7848     0.78479
   19          H           0.215221        0.7848     0.78478
   20          H           0.216276        0.7837     0.78372
   21          H           0.219319        0.7807     0.78068
   22          H           0.181167        0.8188     0.81883
   23          H           0.192561        0.8074     0.80744
   24          C          -0.185049        4.1850     1.09559     3.08946
   25          C          -0.011091        4.0111     1.10523     2.90586
   26          C          -0.020862        4.0209     1.07241     2.94846
   27          C          -0.117013        4.1170     1.09206     3.02496
   28          C          -0.097607        4.0976     1.09439     3.00321
   29          C          -0.026669        4.0267     1.07216     2.95451
   30          C          -0.020008        4.0200     1.10371     2.91630
   31          C          -0.182727        4.1827     1.09667     3.08606
   32          C           0.089486        3.9105     1.10874     2.80177
   33          N          -0.385811        5.3858     1.63874     3.74707
   34          C           0.067441        3.9326     1.06983     2.86273
   35          C           0.076019        3.9240     1.07230     2.85168
   36          N          -0.320017        5.3200     1.56538     3.75464
   37          C           0.094197        3.9058     1.10898     2.79682
   38          H           0.223646        0.7764     0.77635
   39          H           0.218344        0.7817     0.78166
   40          H           0.215282        0.7847     0.78472
   41          H           0.215352        0.7846     0.78465
   42          H           0.216218        0.7838     0.78378
   43          H           0.219284        0.7807     0.78072
   44          H           0.181240        0.8188     0.81876
   45          H           0.192531        0.8075     0.80747
   46          C          -0.180854        4.1809     1.09629     3.08456
   47          C          -0.012132        4.0121     1.10481     2.90732
   48          C          -0.015855        4.0159     1.07215     2.94371
   49          C          -0.105036        4.1050     1.09360     3.01143
   50          C          -0.104874        4.1049     1.09366     3.01122
   51          C          -0.015931        4.0159     1.07218     2.94375
   52          C          -0.012059        4.0121     1.10482     2.90724
   53          C          -0.180865        4.1809     1.09629     3.08457
   54          C           0.098254        3.9017     1.10853     2.79321
   55          N          -0.310213        5.3102     1.57021     3.74001
   56          C           0.070538        3.9295     1.07166     2.85780
   57          C           0.070438        3.9296     1.07167     2.85789
   58          N          -0.310202        5.3102     1.57029     3.73991
   59          C           0.098211        3.9018     1.10853     2.79326
   60          H           0.224055        0.7759     0.77595
   61          H           0.219135        0.7809     0.78087
   62          H           0.216538        0.7835     0.78346
   63          H           0.216544        0.7835     0.78346
   64          H           0.219125        0.7809     0.78087
   65          H           0.224044        0.7760     0.77596
   66          H           0.190539        0.8095     0.80946
   67          H           0.190496        0.8095     0.80950
 DIPOLE           X         Y         Z       TOTAL
 POINT-CHG.    -0.309     0.001    -0.311     0.439
 HYBRID         0.025     0.000     0.025     0.035
 SUM           -0.284     0.001    -0.287     0.404


          ATOMIC ORBITAL ELECTRON POPULATIONS

     Atom    s        px        py        pz      x^2-y^2     xz        z^2       yz        xy
    1 Mn   0.78510   0.16678   0.13386   0.16660   1.04105   1.01167   0.75724   1.00600   1.00599
    2  C   1.09560   1.00383   1.07593   1.00972
    3  C   1.10527   1.09526   0.96070   0.84985
    4  C   1.07245   0.94975   1.01706   0.98160
    5  C   1.09203   1.11269   0.94184   0.97036
    6  C   1.09430   0.94562   1.10971   0.94791
    7  C   1.07219   1.01356   0.95658   0.98428
    8  C   1.10378   0.96361   1.09101   0.86173
    9  C   1.09669   1.07106   1.01164   1.00337
   10  C   1.10868   0.99116   0.92547   0.88491
   11  N   1.63871   1.10018   1.38999   1.25685
   12  C   1.06986   0.86309   0.97064   1.02917
   13  C   1.07230   0.97864   0.83915   1.03404
   14  N   1.56539   1.37010   1.10579   1.27869
   15  C   1.10900   0.92085   0.97709   0.89880
   16  H   0.77636
   17  H   0.78167
   18  H   0.78479
   19  H   0.78478
   20  H   0.78372
   21  H   0.78068
   22  H   0.81883
   23  H   0.80744
   24  C   1.09559   1.00976   1.07545   1.00424
   25  C   1.10523   0.85016   0.96091   1.09479
   26  C   1.07241   0.98159   1.01702   0.94984
   27  C   1.09206   0.97050   0.94194   1.11251
   28  C   1.09439   0.94792   1.10981   0.94548
   29  C   1.07216   0.98434   0.95649   1.01367
   30  C   1.10371   0.86174   1.09120   0.96336
   31  C   1.09667   1.00345   1.01123   1.07139
   32  C   1.10874   0.88500   0.92610   0.99068
   33  N   1.63874   1.25677   1.39025   1.10005
   34  C   1.06983   1.02893   0.97052   0.86328
   35  C   1.07230   1.03388   0.83891   0.97890
   36  N   1.56538   1.27879   1.10620   1.36966
   37  C   1.10898   0.89870   0.97792   0.92020
   38  H   0.77635
   39  H   0.78166
   40  H   0.78472
   41  H   0.78465
   42  H   0.78378
   43  H   0.78072
   44  H   0.81876
   45  H   0.80747
   46  C   1.09629   1.07492   1.00541   1.00423
   47  C   1.10481   0.96027   0.85249   1.09456
   48  C   1.07215   1.01500   0.97971   0.94900
   49  C   1.09360   0.94197   0.95722   1.11225
   50  C   1.09366   1.11265   0.95708   0.94148
   51  C   1.07218   0.94868   0.97973   1.01534
   52  C   1.10482   1.09553   0.85242   0.95929
   53  C   1.09629   1.00251   1.00538   1.07668
   54  C   1.10853   0.92271   0.89408   0.97642
   55  N   1.57021   1.36993   1.26971   1.10036
   56  C   1.07166   0.97690   1.03738   0.84353
   57  C   1.07167   0.84280   1.03742   0.97767
   58  N   1.57029   1.10142   1.26970   1.36879
   59  C   1.10853   0.97943   0.89406   0.91978
   60  H   0.77595
   61  H   0.78087
   62  H   0.78346
   63  H   0.78346
   64  H   0.78087
   65  H   0.77596
   66  H   0.80946
   67  H   0.80950


                    (SZ)    =    2.000000
                    (S**2)  =    6.045250


          ATOMIC ORBITAL SPIN POPULATIONS

    Atom   Total    s     px     py     pz   x^2-y^2  xz     z^2    yz     xy
         Atomic
    1 Mn  3.7050  0.033  0.002 -0.001  0.002  0.570  0.945  0.235  0.959  0.959
    2  C -0.0562 -0.002 -0.003 -0.003 -0.048
    3  C  0.0701  0.002  0.003  0.003  0.062
    4  C -0.0475 -0.002 -0.002 -0.003 -0.041
    5  C  0.0393  0.001  0.002  0.003  0.034
    6  C -0.0399 -0.001 -0.001 -0.002 -0.036
    7  C  0.0266  0.001  0.002  0.003  0.021
    8  C -0.0164 -0.000 -0.001 -0.001 -0.014
    9  C  0.0183  0.001  0.000  0.003  0.014
   10  C  0.0214  0.007  0.012  0.011 -0.007
   11  N  0.0644  0.038  0.002  0.005  0.019
   12  C -0.0066  0.002  0.014 -0.001 -0.022
   13  C  0.0617  0.003  0.002  0.008  0.048
   14  N -0.0863 -0.005 -0.013 -0.007 -0.062
   15  C  0.0805  0.004  0.005  0.005  0.066
   16  H  0.0017  0.002
   17  H -0.0020 -0.002
   18  H -0.0011 -0.001
   19  H  0.0013  0.001
   20  H  0.0004  0.000
   21  H  0.0007  0.001
   22  H -0.0007 -0.001
   23  H -0.0023 -0.002
   24  C -0.0562 -0.002 -0.048 -0.003 -0.003
   25  C  0.0702  0.002  0.062  0.003  0.003
   26  C -0.0476 -0.002 -0.041 -0.003 -0.002
   27  C  0.0393  0.001  0.034  0.003  0.002
   28  C -0.0399 -0.001 -0.036 -0.002 -0.001
   29  C  0.0266  0.001  0.021  0.003  0.002
   30  C -0.0164 -0.000 -0.014 -0.001 -0.001
   31  C  0.0183  0.001  0.014  0.003  0.000
   32  C  0.0214  0.007 -0.007  0.010  0.012
   33  N  0.0645  0.038  0.019  0.005  0.002
   34  C -0.0067  0.002 -0.022 -0.001  0.014
   35  C  0.0618  0.003  0.048  0.008  0.002
   36  N -0.0863 -0.005 -0.062 -0.007 -0.013
   37  C  0.0806  0.004  0.066  0.005  0.005
   38  H  0.0017  0.002
   39  H -0.0020 -0.002
   40  H -0.0011 -0.001
   41  H  0.0013  0.001
   42  H  0.0005  0.000
   43  H  0.0007  0.001
   44  H -0.0007 -0.001
   45  H -0.0023 -0.002
   46  C -0.0359 -0.001 -0.002 -0.030 -0.002
   47  C  0.0463  0.001  0.002  0.041  0.002
   48  C -0.0203 -0.001 -0.001 -0.017 -0.002
   49  C -0.0005  0.000  0.001 -0.001  0.000
   50  C -0.0006  0.000  0.000 -0.001  0.001
   51  C -0.0203 -0.001 -0.002 -0.017 -0.001
   52  C  0.0463  0.001  0.002  0.041  0.002
   53  C -0.0359 -0.001 -0.002 -0.030 -0.002
   54  C  0.0646  0.004  0.005  0.050  0.006
   55  N -0.0656 -0.001 -0.014 -0.044 -0.006
   56  C  0.0335  0.003  0.002  0.022  0.006
   57  C  0.0335  0.003  0.006  0.022  0.002
   58  N -0.0656 -0.001 -0.006 -0.044 -0.014
   59  C  0.0646  0.004  0.006  0.050  0.005
   60  H  0.0012  0.001
   61  H -0.0014 -0.001
   62  H  0.0000  0.000
   63  H  0.0000  0.000
   64  H -0.0014 -0.001
   65  H  0.0012  0.001
   66  H -0.0019 -0.002
   67  H -0.0019 -0.002

 **********************
 *                    *
 * JOB ENDED NORMALLY *
 *                    *
 **********************



 TOTAL JOB TIME:            23.06 SECONDS

 == MOPAC DONE ==
