 *******************************************************************************
 ** Site#: 26130        For non-commercial use only     Version 16.299L 64BITS**
 *******************************************************************************
 ** Cite this program as: MOPAC2016, Version: 16.299L, James J. P. Stewart,   **
 ** Stewart Computational Chemistry, web: HTTP://OpenMOPAC.net. Days left: 350**
 *******************************************************************************
 **                                                                           **
 **                                MOPAC2016                                  **
 **                                                                           **
 *******************************************************************************

                              PM7 CALCULATION RESULTS


 *******************************************************************************
 *  CALCULATION DONE:                                Thu Nov 10 16:01:31 2016  *
 *  PM7        - The PM7 Hamiltonian to be used
 *  TRIPLET    - SPIN STATE DEFINED AS A TRIPLET
 *  UHF        - UNRESTRICTED HARTREE-FOCK CALCULATION
 *
 *
 *
 *                 CHARGE ON SYSTEM =    +3
 *
 *
 *
 *  XYZ        - CARTESIAN COORDINATE SYSTEM TO BE USED
 *  EF         - USE EF ROUTINE FOR MINIMUM SEARCH
 *  T=         - A TIME OF 172800.0 SECONDS REQUESTED
 *  DUMP=N     - RESTART FILE WRITTEN EVERY  7200.000 SECONDS
 *  HESSIAN    - WRITE OUT HESSIAN FROM GEOMERY OPTIMIZATION
 *******************************************************************************
 EF PM7 XYZ HESSIAN TRIPLET UHF CHARGE=3
 1009_M21_3

   ATOM   CHEMICAL          X               Y               Z
  NUMBER   SYMBOL      (ANGSTROMS)     (ANGSTROMS)     (ANGSTROMS)
 
     1      Mn          0.00000000  *   0.00000000  *   0.00000000  *
     2       C          4.50577100  *  -0.46781900  *   0.00049500  *
     3       C          4.77367700  *   0.89152800  *   0.00062500  *
     4       C          3.73177000  *   1.83147100  *   0.00038000  *
     5       C          4.07296000  *   3.18719700  *   0.00047100  *
     6       C          3.08931000  *   4.16041600  *   0.00040500  *
     7       C          1.74463500  *   3.79622400  *   0.00045300  *
     8       C          0.77991900  *   4.81843100  *   0.00045700  *
     9       C         -0.57041700  *   4.51275700  *   0.00034800  *
    10       C         -0.90890700  *   3.18628800  *   0.00001300  *
    11       N          0.00000000  *   2.19000000  *   0.00000000  *
    12       C          1.35223600  *   2.43016600  *   0.00024700  *
    13       C          2.38543000  *   1.39402100  *   0.00013000  *
    14       N          2.19000200  *  -0.00000200  *   0.00000000  *
    15       C          3.19299900  *  -0.85726500  *   0.00011900  *
    16       H          5.29957100  *  -1.20295000  *   0.00104500  *
    17       H          5.81297300  *   1.21233000  *   0.00117500  *
    18       H          5.11543900  *   3.50091300  *   0.00048400  *
    19       H          3.38537100  *   5.20767800  *   0.00038000  *
    20       H          1.07589800  *   5.86489600  *   0.00074400  *
    21       H         -1.32911900  *   5.28580200  *   0.00050100  *
    22       H         -1.94581900  *   2.86337200  *  -0.00017900  *
    23       H          2.89799700  *  -1.90133400  *   0.00007400  *
    24       C          0.00000900  *   0.48619800  *   4.51312200  *
    25       C         -0.00012100  *  -0.87178300  *   4.78494000  *
    26       C         -0.00002900  *  -1.81515600  *   3.74429600  *
    27       C         -0.00014200  *  -3.16776300  *   4.08773900  *
    28       C         -0.00014800  *  -4.14285000  *   3.10629500  *
    29       C         -0.00011600  *  -3.78331300  *   1.76136800  *
    30       C         -0.00002700  *  -4.81178900  *   0.80241000  *
    31       C          0.00013100  *  -4.51807600  *  -0.54990800  *
    32       C          0.00002700  *  -3.19374400  *  -0.90030800  *
    33       N          0.00000000  *  -2.19000000  *   0.00000000  *
    34       C         -0.00027900  *  -2.42161700  *   1.35893700  *
    35       C         -0.00004000  *  -1.38742000  *   2.39170900  *
    36       N          0.00000000  *   0.00000200  *   2.19000200  *
    37       C          0.00001700  *   0.86450100  *   3.19555000  *
    38       H         -0.00004100  *   1.22315400  *   5.30684700  *
    39       H         -0.00011800  *  -1.19262100  *   5.82460700  *
    40       H         -0.00016400  *  -3.47963000  *   5.13050400  *
    41       H         -0.00013500  *  -5.18932600  *   3.40548800  *
    42       H          0.00002700  *  -5.85668500  *   1.10571200  *
    43       H          0.00027200  *  -5.29752100  *  -1.30259600  *
    44       H          0.00023300  *  -2.88037000  *  -1.93999400  *
    45       H          0.00009800  *   1.91037800  *   2.90327100  *
    46       C          0.46604700  *   0.00091400  *  -4.49608300  *
    47       C         -0.89163800  *   0.00087100  *  -4.76575600  *
    48       C         -1.84115900  *   0.00028700  *  -3.72770400  *
    49       C         -3.20121000  *   0.00046400  *  -4.06318500  *
    50       C         -4.17311700  *   0.00045600  *  -3.08115400  *
    51       C         -3.80415800  *  -0.00031000  *  -1.73845100  *
    52       C         -4.82231100  *   0.00073500  *  -0.76654500  *
    53       C         -4.51141800  *   0.00079700  *   0.58242100  *
    54       C         -3.18201500  *   0.00037400  *   0.91413800  *
    55       N         -2.19000000  *   0.00000000  *   0.00000000  *
    56       C         -2.43489400  *  -0.00006900  *  -1.35204300  *
    57       C         -1.39977300  *   0.00011300  *  -2.38083300  *
    58       N          0.00000200  *   0.00000000  *  -2.19000200  *
    59       C          0.85919700  *   0.00052000  *  -3.18575000  *
    60       H          1.19837600  *   0.00153600  *  -5.28938700  *
    61       H         -1.21750500  *   0.00112900  *  -5.80224300  *
    62       H         -3.51413900  *   0.00082000  *  -5.10576800  *
    63       H         -5.22130500  *   0.00130300  *  -3.37697900  *
    64       H         -5.87273800  *   0.00109800  *  -1.05441100  *
    65       H         -5.27911000  *   0.00117500  *   1.34742000  *
    66       H         -2.85326900  *   0.00039800  *   1.94922300  *
    67       H          1.90173800  *   0.00068300  *  -2.88359400  *
 


          CARTESIAN COORDINATES 

    NO.       ATOM         X         Y         Z

     1        Mn        0.0000    0.0000    0.0000
     2         C        4.5058   -0.4678    0.0005
     3         C        4.7737    0.8915    0.0006
     4         C        3.7318    1.8315    0.0004
     5         C        4.0730    3.1872    0.0005
     6         C        3.0893    4.1604    0.0004
     7         C        1.7446    3.7962    0.0005
     8         C        0.7799    4.8184    0.0005
     9         C       -0.5704    4.5128    0.0003
    10         C       -0.9089    3.1863    0.0000
    11         N        0.0000    2.1900    0.0000
    12         C        1.3522    2.4302    0.0002
    13         C        2.3854    1.3940    0.0001
    14         N        2.1900   -0.0000    0.0000
    15         C        3.1930   -0.8573    0.0001
    16         H        5.2996   -1.2029    0.0010
    17         H        5.8130    1.2123    0.0012
    18         H        5.1154    3.5009    0.0005
    19         H        3.3854    5.2077    0.0004
    20         H        1.0759    5.8649    0.0007
    21         H       -1.3291    5.2858    0.0005
    22         H       -1.9458    2.8634   -0.0002
    23         H        2.8980   -1.9013    0.0001
    24         C        0.0000    0.4862    4.5131
    25         C       -0.0001   -0.8718    4.7849
    26         C       -0.0000   -1.8152    3.7443
    27         C       -0.0001   -3.1678    4.0877
    28         C       -0.0001   -4.1429    3.1063
    29         C       -0.0001   -3.7833    1.7614
    30         C       -0.0000   -4.8118    0.8024
    31         C        0.0001   -4.5181   -0.5499
    32         C        0.0000   -3.1937   -0.9003
    33         N        0.0000   -2.1900    0.0000
    34         C       -0.0003   -2.4216    1.3589
    35         C       -0.0000   -1.3874    2.3917
    36         N        0.0000    0.0000    2.1900
    37         C        0.0000    0.8645    3.1955
    38         H       -0.0000    1.2232    5.3068
    39         H       -0.0001   -1.1926    5.8246
    40         H       -0.0002   -3.4796    5.1305
    41         H       -0.0001   -5.1893    3.4055
    42         H        0.0000   -5.8567    1.1057
    43         H        0.0003   -5.2975   -1.3026
    44         H        0.0002   -2.8804   -1.9400
    45         H        0.0001    1.9104    2.9033
    46         C        0.4660    0.0009   -4.4961
    47         C       -0.8916    0.0009   -4.7658
    48         C       -1.8412    0.0003   -3.7277
    49         C       -3.2012    0.0005   -4.0632
    50         C       -4.1731    0.0005   -3.0812
    51         C       -3.8042   -0.0003   -1.7385
    52         C       -4.8223    0.0007   -0.7665
    53         C       -4.5114    0.0008    0.5824
    54         C       -3.1820    0.0004    0.9141
    55         N       -2.1900    0.0000    0.0000
    56         C       -2.4349   -0.0001   -1.3520
    57         C       -1.3998    0.0001   -2.3808
    58         N        0.0000    0.0000   -2.1900
    59         C        0.8592    0.0005   -3.1858
    60         H        1.1984    0.0015   -5.2894
    61         H       -1.2175    0.0011   -5.8022
    62         H       -3.5141    0.0008   -5.1058
    63         H       -5.2213    0.0013   -3.3770
    64         H       -5.8727    0.0011   -1.0544
    65         H       -5.2791    0.0012    1.3474
    66         H       -2.8533    0.0004    1.9492
    67         H        1.9017    0.0007   -2.8836

 General Reference for PM7:
 "Optimization of Parameters for Semiempirical Methods VI: More Modifications to the 
 NDDO Approximations and Re-optimization of Parameters", J. J. P. Stewart, J. Mol. Mod., 1:32, 19 (2013)
 http://www.springerlink.com/openurl.asp?genre=article&id=doi:10.1007/s00894-012-1667-x

           Empirical Formula: C36 H24 N6 Mn  =    67 atoms



      MOLECULAR POINT GROUP   :   C1  


 TRIPLET STATE CALCULATION


          UHF CALCULATION, NO. OF ALPHA ELECTRONS =  102
                           NO. OF BETA  ELECTRONS =  100

          Geometry optimization using EF

          DIAGONAL MATRIX USED AS START HESSIAN

 CYCLE:     1 TIME:   0.488 TIME LEFT:  2.00D  GRAD.:   428.180 HEAT:  850.1601
 CYCLE:     2 TIME:   0.133 TIME LEFT:  2.00D  GRAD.:   235.833 HEAT:  798.7475
 CYCLE:     3 TIME:   0.148 TIME LEFT:  2.00D  GRAD.:   209.026 HEAT:  766.2687
 CYCLE:     4 TIME:   0.273 TIME LEFT:  2.00D  GRAD.:   166.712 HEAT:  752.5678
 CYCLE:     5 TIME:   0.152 TIME LEFT:  2.00D  GRAD.:   169.084 HEAT:  743.4075
 CYCLE:     6 TIME:   0.156 TIME LEFT:  2.00D  GRAD.:   212.810 HEAT:  738.5034
 CYCLE:     7 TIME:   0.156 TIME LEFT:  2.00D  GRAD.:   177.923 HEAT:  732.5867
 CYCLE:     8 TIME:   0.141 TIME LEFT:  2.00D  GRAD.:   168.190 HEAT:  726.7572
 CYCLE:     9 TIME:   0.160 TIME LEFT:  2.00D  GRAD.:   173.398 HEAT:  723.3046
 CYCLE:    10 TIME:   0.176 TIME LEFT:  2.00D  GRAD.:   212.392 HEAT:  722.4350
 CYCLE:    11 TIME:   0.230 TIME LEFT:  2.00D  GRAD.:    96.866 HEAT:  713.6303
 CYCLE:    12 TIME:   0.281 TIME LEFT:  2.00D  GRAD.:    50.855 HEAT:  711.0103
 CYCLE:    13 TIME:   0.133 TIME LEFT:  2.00D  GRAD.:    85.317 HEAT:  710.4318
 CYCLE:    14 TIME:   0.137 TIME LEFT:  2.00D  GRAD.:    44.394 HEAT:  708.0605
 CYCLE:    15 TIME:   0.254 TIME LEFT:  2.00D  GRAD.:    53.751 HEAT:  707.4188
 CYCLE:    16 TIME:   0.137 TIME LEFT:  2.00D  GRAD.:    35.443 HEAT:  706.2139
 CYCLE:    17 TIME:   0.133 TIME LEFT:  2.00D  GRAD.:    47.475 HEAT:  705.2087
 CYCLE:    18 TIME:   0.133 TIME LEFT:  2.00D  GRAD.:    54.482 HEAT:  703.7605
 CYCLE:    19 TIME:   0.148 TIME LEFT:  2.00D  GRAD.:    93.046 HEAT:  703.3990
 CYCLE:    20 TIME:   0.148 TIME LEFT:  2.00D  GRAD.:    99.774 HEAT:  702.3794
 CYCLE:    21 TIME:   0.258 TIME LEFT:  2.00D  GRAD.:    66.958 HEAT:  700.8280
 CYCLE:    22 TIME:   0.254 TIME LEFT:  2.00D  GRAD.:    28.125 HEAT:  699.8333
 CYCLE:    23 TIME:   0.250 TIME LEFT:  2.00D  GRAD.:    24.067 HEAT:  699.6057
 CYCLE:    24 TIME:   0.125 TIME LEFT:  2.00D  GRAD.:    26.601 HEAT:  699.4356
 CYCLE:    25 TIME:   0.117 TIME LEFT:  2.00D  GRAD.:    18.293 HEAT:  699.1677
 CYCLE:    26 TIME:   0.113 TIME LEFT:  2.00D  GRAD.:    33.675 HEAT:  699.0693
 CYCLE:    27 TIME:   0.125 TIME LEFT:  2.00D  GRAD.:    21.329 HEAT:  698.6806
 CYCLE:    28 TIME:   0.254 TIME LEFT:  2.00D  GRAD.:    29.001 HEAT:  698.6425
 CYCLE:    29 TIME:   0.121 TIME LEFT:  2.00D  GRAD.:    19.285 HEAT:  698.3889
 CYCLE:    30 TIME:   0.227 TIME LEFT:  2.00D  GRAD.:    17.218 HEAT:  698.2945
 CYCLE:    31 TIME:   0.121 TIME LEFT:  2.00D  GRAD.:    17.408 HEAT:  698.1939
 CYCLE:    32 TIME:   0.125 TIME LEFT:  2.00D  GRAD.:    17.222 HEAT:  698.0532
 CYCLE:    33 TIME:   0.121 TIME LEFT:  2.00D  GRAD.:    23.557 HEAT:  697.9147
 CYCLE:    34 TIME:   0.109 TIME LEFT:  2.00D  GRAD.:    30.451 HEAT:  697.7735
 CYCLE:    35 TIME:   0.215 TIME LEFT:  2.00D  GRAD.:    29.966 HEAT:  697.6964
 CYCLE:    36 TIME:   0.129 TIME LEFT:  2.00D  GRAD.:    29.834 HEAT:  697.6376
 CYCLE:    37 TIME:   0.121 TIME LEFT:  2.00D  GRAD.:    31.296 HEAT:  697.5978
 CYCLE:    38 TIME:   0.121 TIME LEFT:  2.00D  GRAD.:    33.128 HEAT:  697.5715
 CYCLE:    39 TIME:   0.117 TIME LEFT:  2.00D  GRAD.:    28.373 HEAT:  697.4861
 CYCLE:    40 TIME:   0.219 TIME LEFT:  2.00D  GRAD.:    11.865 HEAT:  697.3303
 CYCLE:    41 TIME:   0.234 TIME LEFT:  2.00D  GRAD.:     7.950 HEAT:  697.2978
 CYCLE:    42 TIME:   0.117 TIME LEFT:  2.00D  GRAD.:     8.256 HEAT:  697.2701
 CYCLE:    43 TIME:   0.113 TIME LEFT:  2.00D  GRAD.:     8.498 HEAT:  697.2369
 CYCLE:    44 TIME:   0.117 TIME LEFT:  2.00D  GRAD.:    13.621 HEAT:  697.2150
 CYCLE:    45 TIME:   0.102 TIME LEFT:  2.00D  GRAD.:    10.457 HEAT:  697.1615
 CYCLE:    46 TIME:   0.348 TIME LEFT:  2.00D  GRAD.:     6.097 HEAT:  697.1385
 CYCLE:    47 TIME:   0.117 TIME LEFT:  2.00D  GRAD.:     8.860 HEAT:  697.1271
 CYCLE:    48 TIME:   0.113 TIME LEFT:  2.00D  GRAD.:     5.383 HEAT:  697.1001
 CYCLE:    49 TIME:   0.219 TIME LEFT:  2.00D  GRAD.:     7.167 HEAT:  697.0919
 CYCLE:    50 TIME:   0.117 TIME LEFT:  2.00D  GRAD.:     4.611 HEAT:  697.0732
 CYCLE:    51 TIME:   0.203 TIME LEFT:  2.00D  GRAD.:     7.512 HEAT:  697.0684
 CYCLE:    52 TIME:   0.094 TIME LEFT:  2.00D  GRAD.:     3.446 HEAT:  697.0472
 CYCLE:    53 TIME:   0.230 TIME LEFT:  2.00D  GRAD.:     7.343 HEAT:  697.0435
 CYCLE:    54 TIME:   0.113 TIME LEFT:  2.00D  GRAD.:     2.951 HEAT:  697.0226
 CYCLE:    55 TIME:   0.227 TIME LEFT:  2.00D  GRAD.:     6.155 HEAT:  697.0163
 CYCLE:    56 TIME:   0.113 TIME LEFT:  2.00D  GRAD.:     3.162 HEAT:  696.9982
 CYCLE:    57 TIME:   0.211 TIME LEFT:  2.00D  GRAD.:     6.668 HEAT:  696.9930
 CYCLE:    58 TIME:   0.098 TIME LEFT:  2.00D  GRAD.:     4.158 HEAT:  696.9759
 CYCLE:    59 TIME:   0.207 TIME LEFT:  2.00D  GRAD.:     6.628 HEAT:  696.9718
 CYCLE:    60 TIME:   0.113 TIME LEFT:  2.00D  GRAD.:     3.904 HEAT:  696.9546
 CYCLE:    61 TIME:   0.230 TIME LEFT:  2.00D  GRAD.:     6.943 HEAT:  696.9496
 CYCLE:    62 TIME:   0.113 TIME LEFT:  2.00D  GRAD.:     5.197 HEAT:  696.9348
 CYCLE:    63 TIME:   0.219 TIME LEFT:  2.00D  GRAD.:     3.702 HEAT:  696.9220
 CYCLE:    64 TIME:   0.105 TIME LEFT:  2.00D  GRAD.:     6.123 HEAT:  696.9165
 CYCLE:    65 TIME:   0.105 TIME LEFT:  2.00D  GRAD.:     3.907 HEAT:  696.9027
 CYCLE:    66 TIME:   0.180 TIME LEFT:  2.00D  GRAD.:     6.820 HEAT:  696.8978
 CYCLE:    67 TIME:   0.086 TIME LEFT:  2.00D  GRAD.:     4.548 HEAT:  696.8822
 CYCLE:    68 TIME:   0.164 TIME LEFT:  2.00D  GRAD.:     5.878 HEAT:  696.8739
 CYCLE:    69 TIME:   0.082 TIME LEFT:  2.00D  GRAD.:     5.249 HEAT:  696.8610
 CYCLE:    70 TIME:   0.168 TIME LEFT:  2.00D  GRAD.:     3.480 HEAT:  696.8471
 CYCLE:    71 TIME:   0.086 TIME LEFT:  2.00D  GRAD.:     6.350 HEAT:  696.8383
 CYCLE:    72 TIME:   0.094 TIME LEFT:  2.00D  GRAD.:     8.978 HEAT:  696.8337
 CYCLE:    73 TIME:   0.086 TIME LEFT:  2.00D  GRAD.:     8.577 HEAT:  696.8206
 CYCLE:    74 TIME:   0.164 TIME LEFT:  2.00D  GRAD.:     5.070 HEAT:  696.7986
 CYCLE:    75 TIME:   0.172 TIME LEFT:  2.00D  GRAD.:     3.396 HEAT:  696.7811
 CYCLE:    76 TIME:   0.086 TIME LEFT:  2.00D  GRAD.:     6.512 HEAT:  696.7765
 CYCLE:    77 TIME:   0.090 TIME LEFT:  2.00D  GRAD.:     5.180 HEAT:  696.7629
 CYCLE:    78 TIME:   0.164 TIME LEFT:  2.00D  GRAD.:     4.475 HEAT:  696.7496
 CYCLE:    79 TIME:   0.082 TIME LEFT:  2.00D  GRAD.:     5.629 HEAT:  696.7388
 CYCLE:    80 TIME:   0.086 TIME LEFT:  2.00D  GRAD.:    10.173 HEAT:  696.7368
 CYCLE:    81 TIME:   0.086 TIME LEFT:  2.00D  GRAD.:    11.784 HEAT:  696.7327
 CYCLE:    82 TIME:   0.172 TIME LEFT:  2.00D  GRAD.:     4.306 HEAT:  696.6939
 CYCLE:    83 TIME:   0.172 TIME LEFT:  2.00D  GRAD.:     4.165 HEAT:  696.6782
 CYCLE:    84 TIME:   0.086 TIME LEFT:  2.00D  GRAD.:     6.383 HEAT:  696.6704
 CYCLE:    85 TIME:   0.082 TIME LEFT:  2.00D  GRAD.:     5.077 HEAT:  696.6552
 CYCLE:    86 TIME:   0.254 TIME LEFT:  2.00D  GRAD.:     4.993 HEAT:  696.6342
 CYCLE:    87 TIME:   0.086 TIME LEFT:  2.00D  GRAD.:     4.181 HEAT:  696.6205
 CYCLE:    88 TIME:   0.164 TIME LEFT:  2.00D  GRAD.:     4.191 HEAT:  696.6034
 CYCLE:    89 TIME:   0.086 TIME LEFT:  2.00D  GRAD.:     3.556 HEAT:  696.5900
 CYCLE:    90 TIME:   0.102 TIME LEFT:  2.00D  GRAD.:     5.198 HEAT:  696.5797
 CYCLE:    91 TIME:   0.090 TIME LEFT:  2.00D  GRAD.:     7.157 HEAT:  696.5644
 CYCLE:    92 TIME:   0.184 TIME LEFT:  2.00D  GRAD.:    10.905 HEAT:  696.5574
 CYCLE:    93 TIME:   0.090 TIME LEFT:  2.00D  GRAD.:     9.767 HEAT:  696.5373
 CYCLE:    94 TIME:   0.227 TIME LEFT:  2.00D  GRAD.:     4.370 HEAT:  696.5025
 CYCLE:    95 TIME:   0.172 TIME LEFT:  2.00D  GRAD.:     6.347 HEAT:  696.4889
 CYCLE:    96 TIME:   0.102 TIME LEFT:  2.00D  GRAD.:     6.178 HEAT:  696.4726
 CYCLE:    97 TIME:   0.176 TIME LEFT:  2.00D  GRAD.:     8.290 HEAT:  696.4621
 CYCLE:    98 TIME:   0.086 TIME LEFT:  2.00D  GRAD.:     6.334 HEAT:  696.4393
 CYCLE:    99 TIME:   0.156 TIME LEFT:  2.00D  GRAD.:     6.544 HEAT:  696.4235
 CYCLE:   100 TIME:   0.086 TIME LEFT:  2.00D  GRAD.:     4.512 HEAT:  696.4037
 CYCLE:   101 TIME:   0.156 TIME LEFT:  2.00D  GRAD.:     8.891 HEAT:  696.3941
 CYCLE:   102 TIME:   0.086 TIME LEFT:  2.00D  GRAD.:     7.506 HEAT:  696.3720
 CYCLE:   103 TIME:   0.160 TIME LEFT:  2.00D  GRAD.:    10.024 HEAT:  696.3629
 CYCLE:   104 TIME:   0.086 TIME LEFT:  2.00D  GRAD.:     6.270 HEAT:  696.3345
 CYCLE:   105 TIME:   0.168 TIME LEFT:  2.00D  GRAD.:     5.874 HEAT:  696.3111
 CYCLE:   106 TIME:   0.082 TIME LEFT:  2.00D  GRAD.:     8.394 HEAT:  696.3008
 CYCLE:   107 TIME:   0.098 TIME LEFT:  2.00D  GRAD.:    10.982 HEAT:  696.2892
 CYCLE:   108 TIME:   0.082 TIME LEFT:  2.00D  GRAD.:    12.807 HEAT:  696.2888
 CYCLE:   109 TIME:   0.164 TIME LEFT:  2.00D  GRAD.:     6.786 HEAT:  696.2351
 CYCLE:   110 TIME:   0.160 TIME LEFT:  2.00D  GRAD.:     4.823 HEAT:  696.2050
 CYCLE:   111 TIME:   0.086 TIME LEFT:  2.00D  GRAD.:     7.849 HEAT:  696.1947
 CYCLE:   112 TIME:   0.082 TIME LEFT:  2.00D  GRAD.:     7.660 HEAT:  696.1725
 CYCLE:   113 TIME:   0.180 TIME LEFT:  2.00D  GRAD.:    12.316 HEAT:  696.1709
 CYCLE:   114 TIME:   0.078 TIME LEFT:  2.00D  GRAD.:    11.655 HEAT:  696.1504
 CYCLE:   115 TIME:   0.086 TIME LEFT:  2.00D  GRAD.:     8.860 HEAT:  696.1266
 CYCLE:   116 TIME:   0.094 TIME LEFT:  2.00D  GRAD.:    10.200 HEAT:  696.1131
 CYCLE:   117 TIME:   0.082 TIME LEFT:  2.00D  GRAD.:    11.376 HEAT:  696.1104
 CYCLE:   118 TIME:   0.094 TIME LEFT:  2.00D  GRAD.:     9.136 HEAT:  696.0785
 CYCLE:   119 TIME:   0.172 TIME LEFT:  2.00D  GRAD.:     5.465 HEAT:  696.0380
 CYCLE:   120 TIME:   0.090 TIME LEFT:  2.00D  GRAD.:     8.311 HEAT:  696.0247
 CYCLE:   121 TIME:   0.094 TIME LEFT:  2.00D  GRAD.:     3.894 HEAT:  695.9888
 CYCLE:   122 TIME:   0.090 TIME LEFT:  2.00D  GRAD.:     7.499 HEAT:  695.9747
 CYCLE:   123 TIME:   0.086 TIME LEFT:  2.00D  GRAD.:     3.271 HEAT:  695.9311
 CYCLE:   124 TIME:   0.090 TIME LEFT:  2.00D  GRAD.:     6.292 HEAT:  695.9107
 CYCLE:   125 TIME:   0.086 TIME LEFT:  2.00D  GRAD.:     4.153 HEAT:  695.8732
 CYCLE:   126 TIME:   0.109 TIME LEFT:  2.00D  GRAD.:     7.083 HEAT:  695.8543
 CYCLE:   127 TIME:   0.086 TIME LEFT:  2.00D  GRAD.:     5.370 HEAT:  695.8214
 CYCLE:   128 TIME:   0.086 TIME LEFT:  2.00D  GRAD.:     8.769 HEAT:  695.8130
 CYCLE:   129 TIME:   0.090 TIME LEFT:  2.00D  GRAD.:     5.259 HEAT:  695.7738
 CYCLE:   130 TIME:   0.168 TIME LEFT:  2.00D  GRAD.:     9.690 HEAT:  695.7604
 CYCLE:   131 TIME:   0.094 TIME LEFT:  2.00D  GRAD.:     2.882 HEAT:  695.7053
 CYCLE:   132 TIME:   0.090 TIME LEFT:  2.00D  GRAD.:     8.529 HEAT:  695.7021
 CYCLE:   133 TIME:   0.086 TIME LEFT:  2.00D  GRAD.:     3.298 HEAT:  695.6575
 CYCLE:   134 TIME:   0.176 TIME LEFT:  2.00D  GRAD.:     5.413 HEAT:  695.6310
 CYCLE:   135 TIME:   0.094 TIME LEFT:  2.00D  GRAD.:     1.775 HEAT:  695.6011
 CYCLE:   136 TIME:   0.121 TIME LEFT:  2.00D  GRAD.:     4.008 HEAT:  695.5673
 CYCLE:   137 TIME:   0.090 TIME LEFT:  2.00D  GRAD.:     1.476 HEAT:  695.5440
 CYCLE:   138 TIME:   0.117 TIME LEFT:  2.00D  GRAD.:     3.120 HEAT:  695.5095
 CYCLE:   139 TIME:   0.082 TIME LEFT:  2.00D  GRAD.:     1.267 HEAT:  695.4883
 CYCLE:   140 TIME:   0.117 TIME LEFT:  2.00D  GRAD.:     2.938 HEAT:  695.4579
 CYCLE:   141 TIME:   0.086 TIME LEFT:  2.00D  GRAD.:     0.825 HEAT:  695.4395

     GRADIENT =  0.82539  IS LESS THAN CUTOFF =  1.00000



 -------------------------------------------------------------------------------
 EF PM7 XYZ HESSIAN TRIPLET UHF CHARGE=3
 1009_M21_3



     GEOMETRY OPTIMISED USING EIGENVECTOR FOLLOWING (EF).     
     SCF FIELD WAS ACHIEVED                                   


                              PM7 CALCULATION
                                                       MOPAC2016 (Version: 16.299L)
                                                       Thu Nov 10 16:01:51 2016
                                                       No. of days remaining = 350




          FINAL HEAT OF FORMATION =        695.41017 KCAL/MOL =    2909.59616 KJ/MOL


          TOTAL ENERGY            =      -6070.82862 EV
          ELECTRONIC ENERGY       =     -72074.28391 EV  POINT GROUP:     D3  
          CORE-CORE REPULSION     =      66003.45528 EV
          COSMO AREA              =        460.19 SQUARE ANGSTROMS
          COSMO VOLUME            =        627.21 CUBIC ANGSTROMS

          GRADIENT NORM           =          0.82539
          IONIZATION POTENTIAL    =         15.944008 EV
          ALPHA SOMO LUMO (EV)    =        -16.637 -9.300
          BETA  SOMO LUMO (EV)    =        -15.944 -9.757
          NO. OF ALPHA ELECTRONS  =        102
          NO. OF BETA  ELECTRONS  =        100
          MOLECULAR WEIGHT        =        595.5638

          MOLECULAR DIMENSIONS (Angstroms)

            Atom       Atom       Distance
            H    64    H    18    11.51804
            H    39    H    61    11.50933
            H    42    H    20    10.42109


          SCF CALCULATIONS        =        189
 
          WALL-CLOCK TIME         =         19.934 SECONDS
          COMPUTATION TIME        =  1 MINUTE AND 15.373 SECONDS




   ATOM   CHEMICAL          X               Y               Z
  NUMBER   SYMBOL      (ANGSTROMS)     (ANGSTROMS)     (ANGSTROMS)
 
     1      Mn         -0.01367752  *   0.00181745  *   0.00846897  *
     2       C          4.22764907  *  -0.59556927  *   0.09364951  *
     3       C          4.67337529  *   0.70845420  *   0.09457921  *
     4       C          3.72056174  *   1.75422604  *   0.05577466  *
     5       C          4.04945770  *   3.15224108  *   0.03729130  *
     6       C          3.08070040  *   4.10831974  *  -0.01238443  *
     7       C          1.68737505  *   3.76119115  *  -0.04278574  *
     8       C          0.62995595  *   4.70013023  *  -0.10286101  *
     9       C         -0.66726466  *   4.23721493  *  -0.12396865  *
    10       C         -0.95362192  *   2.85061230  *  -0.08309453  *
    11       N          0.02857379  *   1.92374722  *  -0.02263902  *
    12       C          1.33874181  *   2.40171476  *  -0.01263988  *
    13       C          2.36548931  *   1.38850218  *   0.02662264  *
    14       N          1.90555762  *   0.07207647  *   0.02291242  *
    15       C          2.84549935  *  -0.89988630  *   0.05704824  *
    16       H          4.94333536  *  -1.43342862  *   0.12215001  *
    17       H          5.74962664  *   0.94519416  *   0.12327464  *
    18       H          5.11531206  *   3.43073450  *   0.06175021  *
    19       H          3.34513179  *   5.17794495  *  -0.03060137  *
    20       H          0.85302923  *   5.77907525  *  -0.13176840  *
    21       H         -1.51419868  *   4.94094292  *  -0.17259722  *
    22       H         -2.00820713  *   2.52959974  *  -0.10013575  *
    23       H          2.53709012  *  -1.95848459  *   0.05624711  *
    24       C          0.12220863  *   0.60715514  *   4.24364332  *
    25       C          0.12001540  *  -0.69666327  *   4.69138397  *
    26       C          0.07024985  *  -1.74345475  *   3.74099239  *
    27       C          0.05107423  *  -3.14104085  *   4.07172925  *
    28       C         -0.00501893  *  -4.09829218  *   3.10472918  *
    29       C         -0.04360201  *  -3.75361393  *   1.71086948  *
    30       C         -0.10829057  *  -4.69390586  *   0.65559413  *
    31       C         -0.13856765  *  -4.23263351  *  -0.64217691  *
    32       C         -0.10392854  *  -2.84634746  *  -0.93083519  *
    33       N         -0.03885425  *  -1.91795819  *   0.04965517  *
    34       C         -0.01722988  *  -2.39426507  *   1.36012848  *
    35       C          0.03164086  *  -1.38010039  *   2.38519811  *
    36       N          0.02831510  *  -0.06421396  *   1.92371196  *
    37       C          0.07564645  *   0.90996948  *   2.86207672  *
    38       H          0.16105247  *   1.44580746  *   4.95847487  *
    39       H          0.15511041  *  -0.93134500  *   5.76778481  *
    40       H          0.08089741  *  -3.41794119  *   5.13765558  *
    41       H         -0.02230830  *  -5.16740454  *   3.37055888  *
    42       H         -0.13315312  *  -5.77244469  *   0.88002142  *
    43       H         -0.19013405  *  -4.93770254  *  -1.48776285  *
    44       H         -0.13028781  *  -2.52735936  *  -1.98565476  *
    45       H          0.07858085  *   1.96820051  *   2.55162918  *
    46       C          0.57930218  *   0.14804900  *  -4.23277071  *
    47       C         -0.72390759  *   0.12697375  *  -4.67629164  *
    48       C         -1.76874649  *   0.06361929  *  -3.72161355  *
    49       C         -3.16596839  *   0.02946843  *  -4.04983235  *
    50       C         -4.12117560  *  -0.03338564  *  -3.08042637  *
    51       C         -3.77231989  *  -0.06524433  *  -1.68802002  *
    52       C         -4.71149163  *  -0.12861155  *  -0.62909276  *
    53       C         -4.24842905  *  -0.14661234  *   0.66684667  *
    54       C         -2.86029093  *  -0.10202006  *   0.95297193  *
    55       N         -1.93623541  *  -0.03783237  *  -0.02928344  *
    56       C         -2.41368818  *  -0.02745786  *  -1.34026785  *
    57       C         -1.40128919  *   0.02873565  *  -2.36811606  *
    58       N         -0.08292258  *   0.04213827  *  -1.91087341  *
    59       C          0.88641973  *   0.10687054  *  -2.84982874  *
    60       H          1.41621397  *   0.19750587  *  -4.94853401  *
    61       H         -0.96345141  *   0.15710250  *  -5.75175979  *
    62       H         -3.44561314  *   0.05498443  *  -5.11535303  *
    63       H         -5.19066817  *  -0.06075786  *  -3.34407679  *
    64       H         -5.79000846  *  -0.16129038  *  -0.85288953  *
    65       H         -4.95081522  *  -0.19704942  *   1.51456366  *
    66       H         -2.53895299  *  -0.11735617  *   2.00771768  *
    67       H          1.94576331  *   0.12525429  *  -2.54315997  *

                             CARTESIAN COORDINATES

   1   Mn       -0.013677521     0.001817451     0.008468968
   2    C        4.227649072    -0.595569273     0.093649511
   3    C        4.673375287     0.708454196     0.094579206
   4    C        3.720561742     1.754226039     0.055774658
   5    C        4.049457695     3.152241076     0.037291303
   6    C        3.080700397     4.108319743    -0.012384433
   7    C        1.687375046     3.761191146    -0.042785740
   8    C        0.629955955     4.700130229    -0.102861008
   9    C       -0.667264665     4.237214934    -0.123968646
  10    C       -0.953621915     2.850612304    -0.083094531
  11    N        0.028573791     1.923747222    -0.022639016
  12    C        1.338741812     2.401714760    -0.012639883
  13    C        2.365489314     1.388502175     0.026622635
  14    N        1.905557622     0.072076468     0.022912418
  15    C        2.845499350    -0.899886297     0.057048241
  16    H        4.943335358    -1.433428619     0.122150015
  17    H        5.749626637     0.945194163     0.123274644
  18    H        5.115312060     3.430734502     0.061750206
  19    H        3.345131790     5.177944947    -0.030601374
  20    H        0.853029227     5.779075254    -0.131768395
  21    H       -1.514198682     4.940942917    -0.172597216
  22    H       -2.008207132     2.529599743    -0.100135748
  23    H        2.537090118    -1.958484589     0.056247113
  24    C        0.122208631     0.607155138     4.243643322
  25    C        0.120015399    -0.696663268     4.691383975
  26    C        0.070249855    -1.743454751     3.740992388
  27    C        0.051074233    -3.141040847     4.071729251
  28    C       -0.005018927    -4.098292177     3.104729185
  29    C       -0.043602007    -3.753613929     1.710869484
  30    C       -0.108290567    -4.693905863     0.655594131
  31    C       -0.138567648    -4.232633513    -0.642176911
  32    C       -0.103928541    -2.846347456    -0.930835186
  33    N       -0.038854251    -1.917958191     0.049655172
  34    C       -0.017229879    -2.394265075     1.360128481
  35    C        0.031640860    -1.380100389     2.385198106
  36    N        0.028315103    -0.064213964     1.923711958
  37    C        0.075646455     0.909969481     2.862076723
  38    H        0.161052471     1.445807459     4.958474867
  39    H        0.155110412    -0.931345004     5.767784811
  40    H        0.080897411    -3.417941192     5.137655585
  41    H       -0.022308301    -5.167404537     3.370558877
  42    H       -0.133153121    -5.772444689     0.880021415
  43    H       -0.190134051    -4.937702545    -1.487762851
  44    H       -0.130287814    -2.527359362    -1.985654756
  45    H        0.078580855     1.968200506     2.551629176
  46    C        0.579302176     0.148048998    -4.232770715
  47    C       -0.723907588     0.126973750    -4.676291636
  48    C       -1.768746486     0.063619286    -3.721613547
  49    C       -3.165968393     0.029468434    -4.049832353
  50    C       -4.121175595    -0.033385639    -3.080426366
  51    C       -3.772319891    -0.065244331    -1.688020021
  52    C       -4.711491629    -0.128611549    -0.629092764
  53    C       -4.248429049    -0.146612340     0.666846674
  54    C       -2.860290927    -0.102020057     0.952971930
  55    N       -1.936235412    -0.037832366    -0.029283442
  56    C       -2.413688183    -0.027457859    -1.340267854
  57    C       -1.401289193     0.028735648    -2.368116063
  58    N       -0.082922580     0.042138267    -1.910873408
  59    C        0.886419727     0.106870540    -2.849828739
  60    H        1.416213969     0.197505867    -4.948534008
  61    H       -0.963451407     0.157102503    -5.751759789
  62    H       -3.445613141     0.054984430    -5.115353030
  63    H       -5.190668168    -0.060757863    -3.344076788
  64    H       -5.790008463    -0.161290378    -0.852889533
  65    H       -4.950815217    -0.197049419     1.514563656
  66    H       -2.538952988    -0.117356172     2.007717679
  67    H        1.945763313     0.125254289    -2.543159973


           Empirical Formula: C36 H24 N6 Mn  =    67 atoms

    Hessian matrix from geometry optimization
 1041.4426
   65.1628 1117.5680
   58.3881 -105.3147 1136.2984
   22.2888  -19.6552   -7.7887 1179.3177
   16.7020    4.4048   25.8862  159.3619 1378.5472
   -0.5509   12.0966  -30.4900   13.2112  -22.1241  215.6121
  -47.7211   -2.3634   19.9806 -249.5367 -297.1580  -12.8454 1160.7304
    5.8133  -50.6135  -16.4828 -184.8264 -864.7980   -1.8494   36.2493 1456.7042
   -6.2490   -3.2725  -31.7158   -8.4268   14.7300  -30.3655   19.9507    3.0436  197.3512
   -6.2309   14.1355    5.1475   72.1810  103.8895   -1.1984 -416.5131  231.4946   -1.2820 1372.0676
  -22.5557  -25.7886  -23.9925  -24.6163 -166.6828    3.5471  339.4454 -429.5023    8.3389  -23.8028
 1495.5449
   -8.8162    1.4880  -23.3262   21.3146  -17.3055  -12.2415    8.6315  -18.1829  -23.1935   -2.2367
  -13.8057  214.5246
  -12.0170  -34.6738  -16.4490  -44.2125    4.0928  -14.2868  -27.8864   63.7596   16.3167 -141.9216
 -136.7731  -18.7020 1276.1501
    8.8055  -55.9461   -0.9561   23.4049   27.7443    6.3087   31.9764  -79.9013   -2.9091 -126.0831
 -579.7686   -0.6351 -221.1745 1331.5770
    1.2475   11.4138  -21.7265   -8.6371   15.3242   -6.1757  -15.0062   20.4743  -11.9934   19.4150
    6.3506  -25.3218   23.5332  -15.8523  199.4514
  -41.5604   31.2741   14.6625   -3.3980   12.6432  -16.6132    6.9924  -51.2894   16.4247   42.9234
  155.1714  -14.4848 -572.8473  407.6647    7.9180 1375.9038
   13.2010    5.7850   13.5122   15.9239  -10.6352    9.2992   16.6829    3.3285   -7.8970   21.5747
 -121.2454    9.6117  427.9529 -598.3056  -11.1281 -235.6700 1222.5914
   -4.1518   -8.6829  -33.5735    1.6882  -13.1861  -10.3402   11.9873  -15.1940   -9.8010  -15.3080
    5.3071   -7.4516   -6.5482   11.5592  -23.6473    1.3791    0.7330  195.3541
  -49.7923   -5.0409    8.7512  -41.3860   -4.2267   -1.8866   20.9767    3.1740    4.2449  -15.0799
  -77.6921   -0.3999 -132.7597   89.4303    7.3808 -574.6931 -142.1028  -12.1488 1432.0628
   39.9750  -24.8319    8.4337  -33.0505    1.9971    9.2672  -22.4140  -19.5789  -10.9515   20.0191
   15.0076    8.3530   25.9925    9.7127    4.5441 -135.1721 -160.0447   -2.6458   -2.5096 1445.0946
   -2.2970    4.6227  -53.5707   -2.8353   -1.4114    1.5753   -4.8445    4.7937   -7.5439    4.7060
   -5.2785   -9.5697    3.7125   -0.3102   -6.6576   -2.7364   -3.6854  -16.0558    6.0984  -16.5973
  195.7722
  -18.0572   36.2819    5.4524   24.6393   -5.0360   21.9232  -25.2793   -0.7926  -19.3336   21.1449
  -13.0144   14.3530  -12.2884  -33.9849   -5.7371 -112.5376   27.6796    2.4662 -429.4958  251.2087
   -2.1829 1505.1976
  -16.2032  -21.5988   27.7514   -8.7424  -18.8393    9.8846  -28.5695    4.8776   -7.8904   -3.9136
   11.8243    2.6537    2.4016   -5.8225   -1.2501   44.5566  -19.3174    1.0603  294.8291 -385.6950
    6.3314   47.7447 1183.8010
   -3.7771   -1.8861    4.5368   -0.5640    9.1466   -1.4565    6.6318    1.5104    0.4726    2.0278
    4.4848   -8.6230    2.5326   -7.8188   -2.8410    6.9059   -4.1197  -16.9733    8.2254    6.6138
  -16.1517    8.9771  -21.7945  201.5328
    1.4360  -12.8640  -24.0954  -12.0435   34.4479   15.8771    9.3137    3.6464  -16.9297  -21.3711
  -28.0003   25.5115  -36.3873  -15.1847  -12.6648    7.9721   13.4597   10.9084 -154.5181   70.6081
    1.5830 -885.4078 -282.2791   -4.8603 1402.2565
   -7.0361  -51.3698   -0.8854  -16.1554  -18.3876   -3.2011   13.3305   -0.5457    6.2981  -52.2636
  -19.0966   -8.9035   18.2868   -3.4791   -0.0569   46.7285  -10.5603    4.6763  -30.2670   78.9823
    1.1198 -207.6917 -229.1257   -7.2798  169.2698 1198.2665
   -2.6476   11.2598  -64.6719    8.6005  -14.2946    5.0787   -2.9999   -6.4037   -5.1052  -11.8309
  -14.8546    5.1263  -15.3007    9.0581  -16.2726  -17.0798    7.5425   -3.1668  -11.7633    5.1982
   -9.8096    8.9710    3.2632  -32.0373   27.7909  -11.1712  204.1495
  -36.7593   14.4092  -43.7238    2.9632    9.1806    8.3200  -26.0295   23.2949   -8.2597   17.5526
  -22.6299    7.9723   16.9317   16.3949   -4.6984  -26.2168  -17.4194   10.3499  -48.9536   51.9365
    3.9002   -3.1745  -64.5909   -7.4878 -163.9598 -121.5065   19.3688 1221.6961
   24.1016  -61.4264   32.9518   -2.5600  -35.3621   -2.5565  -27.2924   20.2001   -0.7177  -26.8176
   46.0549   -2.3343   12.6984  -27.0433    2.5374  -22.9082  -29.3985    0.7106   41.3093  -52.1398
   -9.7496 -159.1434  -34.1691    4.5239  -51.0766 -616.7650    2.0670  -84.0506 1278.0372
   14.7018  -21.1271   16.1590  -20.0701    8.1405    0.9130  -10.0219    8.3584    0.9642   26.6457
   -3.0948  -11.6056   23.4205    5.2484   -0.8346   11.1295   -7.9094   -7.1500   -3.4968  -23.5406
  -13.0010  -12.4689  -14.7324   -4.7639  -17.1370   13.0896  -22.9821   -1.2397   -3.3512  216.9629
  -81.6482    2.3041   20.5680   33.0875  -27.7829   15.6189    1.3214  -44.8279   -8.9071    2.7370
   24.8384    1.3211   -6.8134   18.4073    4.2721   -8.5637   -2.5551   -4.9410    3.0282 -150.6771
    3.4399  -68.6878   23.8376   -5.0838   67.6643  110.1927   -2.4382 -548.1281  252.9079   -3.5363
 1408.3980
  -43.1460 -388.6899  -25.1089   23.6660   22.1159   -8.7404   -9.5051  -26.8838   16.0571  -10.2101
   -3.3588  -22.0806   22.5618   45.7170    0.7905    1.2948   24.3267    5.1426  -11.8837  -46.1261
    5.5255    1.5375  -26.4276  -11.0078   37.1366 -116.1994    6.5094  310.1640 -529.6164   21.5018
 -172.0619 1303.1439
  -18.2854   36.4875 -150.7378   17.3087  -10.9834    4.7839    9.8592   -4.3721   -3.9061  -32.0364
   12.6846   -1.2241  -15.1656   -5.3216   -6.0201   -8.6322    2.1991   -9.7335    3.4664   19.8677
    4.4313   18.0790   13.6028   -8.0223   20.9730   -7.4433   -0.5955   10.4861  -10.0610  -41.0959
   -2.1989  -24.7502  255.7809
  -11.7523  -81.0829  -16.5629  -16.3216  -35.1274   -5.6567   30.8352   10.7533    9.6488  -92.7802
    7.6669   -8.2496  -40.7117   -2.1017   -9.3506   -2.5657  -40.5634   12.5231 -169.7487 -146.0179
   -1.8245   48.5171   26.1518   -5.8101  -47.5837  -21.9201    6.1853 -148.4672  112.1109    4.7427
 -657.6332 -216.2300  -10.6448 1395.4071
  -85.9463  -51.6865   -5.2588    7.3897    1.6685   -2.2136    9.0317   22.1001    1.4365   51.1973
   30.0596    9.8081   16.3498  -22.1414  -20.0002  -82.3079  -42.5006   15.1250 -221.2012 -760.3413
    2.2995  110.5919 -129.6099    1.9330  -20.4794  -52.7938    3.3902   41.4839  123.0202   14.9976
 -163.3562 -243.6792  -10.0317   74.5080 1548.4416
    6.2882   -6.0494   33.4437    5.7355   -0.3607  -13.4028   -1.5515   -2.7374   -8.1014   19.4908
   -2.7215    0.3354    0.4760  -10.8032  -13.2789    1.0595    2.3758   -6.7068    4.5904   11.9355
  -16.5173   -4.4350   -2.1056  -12.6556  -10.3955    0.9986   -6.3590  -13.1322   10.2868    4.7557
    8.7387   -3.0014  -35.9783    1.5449  -18.2208  216.3329
  -67.5228  -49.1420   21.4962  -42.0552    7.0244  -16.1869 -100.8816   77.4872   14.1179 -723.7094
 -154.1725  -13.1582   -7.9223  -97.7561   -0.4062   14.2376   14.9160    4.2098   34.4029   61.2533
   -7.0580  -38.5796  -10.7972    7.7397    2.5518    2.2167   -5.1378   -6.3258  -28.6171   -7.1745
 -135.1842   60.0017    4.2440 -353.0330  271.4580  -12.6784 1571.1070
  -58.7663  -27.6069    6.5013  -71.7759  -49.6267    5.4510    0.5780  107.9679   -9.3368  -99.5954
 -212.2769   14.5054  -70.1482    1.0405   -4.4488   11.8407  -26.8464   -1.3968    2.3771  -55.3995
    4.8604   12.5912  -13.9322    0.7826  -12.0651  -13.3507   -1.3365   -4.7736   54.1817    7.5207
   71.1907   32.8554  -10.8471  259.8884 -351.7828   -0.3120   14.4070 1341.4147
    9.7596   -8.9633  -12.3025  -20.4883   10.8045   -5.3424   -7.0776   16.5429   -2.8286    4.4350
   11.2114  -31.6400   15.8456    2.7112   -0.9410   13.7667   -7.0996   -9.8344   -2.5192   -4.0274
   -6.8917   -9.6412    4.7626   -3.3790  -12.1012   12.1953  -11.4588    1.6791    0.0714    5.3913
   -2.8031   17.4234   -9.9837    5.0951   -2.5608  -12.9428   12.6271  -14.0324  214.0937
 -400.0551  -10.9518  -26.7087 -124.6115   10.9604    6.4119   -6.5186   62.7432   -7.2978   24.9000
  -75.3043   14.3817  -14.8179   16.4650   -4.0675  -17.7127   -9.8875    0.7098   33.7055  -14.3607
   -1.7526    2.8675   14.9417    9.5005   -9.6161   12.5267   -3.2611   18.0019  -21.8427  -15.6989
   10.9534   18.3003   24.3266   51.2577   67.3011   -6.5146 -250.3100 -181.8512  -11.8659 1270.3272
   -7.6062 -124.0296   -0.3392  159.4125  107.5574    1.5231   20.4903 -141.4207    0.1419 -157.5803
   -5.8300    6.2344   16.8179   -0.1061    5.9366  -44.4268   28.9378  -11.6627   50.7139  -12.1557
    5.0097  -29.3549   22.2465    1.7295    9.6420   48.3612   -3.1058   -0.0803  -11.4503  -23.5116
   21.2193    0.2902   29.7933   90.4332 -111.9775   -4.3968 -176.7241 -604.8268   -7.8845 -241.0717
 1392.1481
  -13.0510   27.2450 -144.6515    6.3622  -15.3509   12.3159   -5.1704  -12.7300  -15.7158  -19.4244
   -4.7094   -2.6308  -13.6525   14.8954   -7.3084  -20.9018    4.7626   -4.3631   -3.3019  -11.4280
    5.8129   18.3271  -10.7921   -7.1181   25.5507  -11.2592    8.4604   13.7126  -11.4923  -12.1837
   -0.6310    4.7589   28.9853    6.7246   21.3550  -24.1576   -4.3908   12.8802   -9.0323   13.5061
   -5.7781  233.4229
  -97.7191   29.7386   10.2522 -593.7276  -30.8193   -1.6194  -22.8843 -197.2867   -5.6517  -81.0009
   47.9710    7.8910   30.4527  -22.4845    0.1253  -49.5900    4.5267   -5.4653   13.8636  -17.4589
    8.2993   14.9398  -26.7342   -5.1617   -3.4894    9.3786    0.4318    0.0677   11.9919   12.1288
   19.4959  -11.9312  -20.4073   34.1339  -48.6858    1.1162   94.2655  140.2149  -11.0692 -542.1610
  292.9836   10.3812 1317.1257
   41.0823   15.5885   27.5596 -139.8898 -272.7253   -9.9775  -67.9637    4.1784   -1.5480   18.8335
  -30.8837    5.5644  -16.0823   10.5686   -5.8414  -15.2075  -19.6815   -1.3214   -7.2548  -20.4494
   -5.5213    0.6197  -25.6883    6.1881   38.2200  -19.1345    0.7936   -3.4909  -12.3526   13.8245
    6.3852   13.8460  -23.6459  -47.2176   55.3855    4.5022   24.0559 -159.0359  -10.6425  378.1589
 -543.9732    5.5561 -116.1343 1223.9480
    4.9574  -12.8846   14.3053   -4.6381   14.6088  -41.8477    6.0908    7.8648    2.5929   14.2169
    1.4044   -3.1213   19.6093  -15.1235  -11.8225   18.6450  -11.2569   -3.4778    1.9585    5.6348
  -11.4179  -20.3282   -1.4576   -1.5183  -19.5872    4.8591   -0.6213   -6.1361   10.9085    3.4056
   -6.2728   -5.7326  -17.2525   -1.3958  -13.4076   13.7947    5.1294   -6.0802  -12.5458   -6.7592
    4.5885  -35.6040   -1.8408   -1.3268  228.2441
   19.7436    4.3814    3.6192 -168.3130  140.7145   -8.3713   28.8343  -11.1828    9.0796   12.6825
  -15.1340  -18.3846    2.4210  -12.4826   11.0713   15.8585  -18.6483   -4.7466    9.5080   11.0896
   -0.1632  -17.2226    1.7562    4.9575    7.1183   -6.6472   -7.8128   -8.3562  -13.8055    7.2164
  -28.0092   -9.7634   -5.1199   -1.1789   -2.3647   -3.5795    9.9053  -12.2262   16.0327   45.1399
  -34.1568   -8.3232   -6.2652  -19.0754    5.6566  277.3873
  -22.9232  -16.8709   -2.2248  158.1834 -204.5283   10.9250    5.5198   -6.0369  -10.7005  -35.3046
   39.2686   22.7821   -7.7840   23.2967  -17.2945  -14.5363   11.0706    8.1814   -8.0011   -4.8165
   -1.7576   15.7014   -6.2447   -7.7636   -4.6147   -1.5254    9.0473    2.7109    7.8405   -9.9174
   31.7430    2.0076    5.4155    7.4940    0.3640    3.7985  -25.9768    0.8156  -19.0275  -31.5249
   10.5249   10.6222  -18.2601   50.6968   -7.2202  -97.0257  307.5554
   -0.7478   -0.4188   -8.5577   -3.4518    3.4796  -11.9771    1.9946    0.7022   -4.9726   -0.5068
    0.3414   -4.9910    4.2091   -0.8626   -5.0824    2.7021   -2.4671   -1.1477   -1.7306   -3.0571
   -0.2645   -4.2904   -1.0452    3.2795   -1.6866    0.5709    5.0346    0.1026    0.0618    3.0798
   -3.6376    1.5959   -0.3172    1.6549    2.5548   -0.1771    2.8875   -0.5202   -3.5757    0.5603
   -1.3916   -5.0292    0.9683    1.0669   -0.6774    2.0922   -1.7643  194.6279
   13.8524   -4.6162  -29.0353   19.4581    7.9736   15.8862 -338.8100  -57.0304  -13.3657    4.0527
    9.2115   -5.0792   15.9741   -6.9757    1.7812    5.6355  -36.2032    2.1489  -12.4616    3.6086
    1.6263   -0.3814   11.1411   -6.3810  -11.6175    5.4783    6.7815    5.3244   21.7920   -0.9262
   17.3942   -0.6218    4.9911   12.3426  -28.3235   -5.7563   45.8920    0.5912    7.3915   32.8037
    8.0170   13.0768   37.3085   32.1212  -11.5778  -15.7507   12.2831   -1.6556  390.4224
    4.6204   -9.0757   -3.6434  -19.3051   -0.4619    3.1611  -67.2337  -44.9068   -2.9726   24.5182
   13.5616    1.1523    2.7041   -6.8592   -2.8403    2.0057  -10.5396    1.8707   -1.6087    3.5095
   -0.8618   -0.8883   -1.7690   -2.8588    1.4542   -2.9061    0.6865    0.8341   -0.3530   -0.2470
    4.9454   -2.7701   -0.1784    0.3644    0.4934   -0.9217   -7.9317   -8.3948    0.0510    7.8354
  -14.9081    2.6595   21.4297    8.1979   -2.3387   -6.4847   -1.4313    0.1235   39.2375  204.4717
    0.1587    1.0534  -11.8449    1.1286   -2.6850   -5.3723   -3.3213   -0.6924  -11.8532   -1.4841
   -1.5170   -4.8814   -0.3965    2.1035   -7.5304   -3.8248    2.4316   -2.8902   -0.4835    1.4874
   -0.7263    2.7726   -0.9141    3.0951    5.5758   -0.0351    4.9165    4.1132    0.6194    1.2926
    0.2472    0.0703   -1.4178   -2.2695    2.5050   -2.1354   -1.6310    2.8494   -5.4337    0.1406
    0.7349    0.5680    2.3314    3.4587   -6.0909   -1.5788    2.1399   -6.4013    3.1753    1.0253
  191.7095
   13.1591   26.2195    3.4624   22.0943    9.6305   15.3573   10.8557   -0.3230  -14.7365    4.8890
  -39.1485   18.3645 -365.4477  -99.3313  -18.4968  -45.4685   23.8823    7.1628   76.6580   -4.3541
   -1.2033   45.2072  -30.0924   -8.8541   49.4319   -8.3304   22.1032   -9.6148  -14.5525  -20.7088
   11.1304  -12.8788   12.5006   30.8518    2.4063    1.4893   12.7510   31.2412  -13.8075   22.6626
   37.7387   16.0611  -12.0681   28.4991  -17.3708   -5.2379    6.9134   -3.6479  -22.6700   -5.3045
    1.9068  432.4978
    2.8680    2.4928    1.9434    7.8046    2.3202    2.1650   -2.9346   -3.7632   -2.6905  -18.2858
  -10.8914    4.7855  -86.4149  -54.2246   -3.7346   10.6420   14.2387    0.0380   -1.8877  -11.6726
   -0.8938    7.8315   -6.1828   -2.3268   18.0713   -0.1459    3.1902   -3.7071    0.7510   -5.7027
    5.6191  -10.3967    2.6979   13.6954  -11.9729    0.8043   23.5064   12.3133   -4.0102   11.2470
   11.0187    2.0930   -9.1448   -2.3121   -1.3734   -1.0658   -2.5921   -0.3149   -3.9487   -3.9998
    0.6997   56.6576  213.4335
   -1.9665   -0.5280   -9.4324    2.6721   -2.8675   -5.5336    6.1059   -3.9467   -8.0031   -2.2851
   -1.5126   -3.2718   -8.0398    0.4361   -9.2789   -3.1809    5.5311   -2.7102    2.3906   -1.0350
   -3.2816    1.7082   -0.9946   -1.2162    5.4645    0.2469    1.7871    0.3825   -1.9817   -1.8661
   -0.2178    2.5699   -2.3030    1.0372    4.0668   -2.1891   -0.4073    1.7199   -5.8263   -0.5277
    1.2534   -0.7288    0.3538    1.7763   -2.5055   -2.4898    3.4960   -3.4300   -2.2321    0.1241
   -5.8031    7.0899    1.7079  195.9026
   -5.5014   -0.5715   -4.3971    2.6512    9.0013    0.0276  -12.9225    4.3385    0.3065  -12.0811
   -9.6978    0.0991   10.3809   22.8582    0.9994  -52.5237  -72.8583    0.6273   -4.7089  -24.7709
    1.5936    1.5022    0.7625   -1.1502    5.9746   -1.0915    2.0527   -0.0093   -3.2820    1.2231
   13.8055    6.3928   -0.8269    6.9778   36.7163   -0.3976  -15.5753    7.4435    0.2870    1.8678
    2.1272    2.0158    3.0222    5.2961   -0.1058    0.1152   -0.9485   -0.2436    2.7040    0.8875
    0.1097   -4.9144   -2.8639   -0.1013  210.6734
    0.8925   -9.5877   -1.2366    1.3242   19.7365  -10.4189  -45.0108   38.4179    6.6066    6.2760
   48.3634   -1.8603   20.1725    5.2211    8.4731  -94.3450 -331.0828   -4.7068  -17.3489    7.6220
    2.3925    6.2998   17.2999   -1.2900   28.1939    3.4833   -6.3318   25.0260    7.9779    4.9819
   31.9112  -12.1065   -4.7773   20.5487   63.5453    1.7090   -0.1766   14.2416    0.0050    8.1729
  -10.0313   -8.0825   -8.5365    0.0871   14.0010   12.1310  -20.1687    2.8035   11.0589   -1.7036
   -0.6340  -25.3941   -8.2979   -2.7298   45.5911  398.7553
    1.2092    1.4747   -7.4118    1.2840    1.3758   -0.8868   -3.2427    0.6268   -2.7867    2.1789
   -3.1389   -3.0921    3.2554   -1.4345   -2.7623   -0.4321   -0.3850   -6.0650   -0.0433    0.8205
   -3.8319    1.1238   -3.6981   -4.1947   -0.4547   -1.1501   -5.1502    0.7738    1.3423   -2.6802
    0.3978   -1.6457   -2.2169   -1.5658   -1.8030   -3.3885   -1.5561   -0.1477   -2.8239   -0.2225
    0.6947   -0.9397    0.2937    1.3879   -1.8184   -0.0211   -1.1855    0.2868    0.0508   -0.6537
    0.1338   -1.5673   -0.6943   -0.9447    0.1548    0.2071  198.2141
   -8.2177    3.7903   -1.3118   -7.7583    4.2340   -6.1329   -0.6990    1.7881    5.6510    4.1999
    0.4121   -3.3619   -5.8201    2.9851    2.4242   -0.7670    3.5708   -1.3605   15.6253   16.6235
    0.0305  -48.5723  -68.8397    3.0051   -4.4507  -22.3528   -3.3588   -9.7550   25.5039    4.2395
  -15.1121   12.6990   -4.3536   -1.2518   -2.5662    2.3633    7.6882   -1.7603    0.9609    1.5238
   -4.9288   -3.2300   -7.7747    2.9076    4.4446    0.1589   -7.0132    0.4132   -4.1816   -4.5372
   -1.1697   -7.0187   -0.3771   -0.3826   -4.4483   -6.2758    0.6076  205.6060
    1.1963   13.3064   -7.7390    9.8623    4.1131  -15.1696   15.6357   -7.0735   16.3499    4.4426
  -10.6185  -10.0530  -24.0764   15.6227    8.4197   -6.2552   12.2980   -8.8780   25.0101  -20.9680
    0.4530  -65.2895 -365.3103   12.8258  -10.0688    0.1153  -14.9807  -19.0528   46.8857   15.4362
   12.3616   61.5048  -14.4859    4.0784   71.7024    3.0244  -13.8386   21.9189    0.3278   -4.5163
   -5.5351   -2.4273   -2.6308    4.7805    8.5208    3.6072   -7.1633    2.0494   -6.5883   -3.6702
   -0.2999    1.6963   -2.9428    0.6616   -4.4989  -27.0187    1.7764   45.7076  417.9385
    1.4229    0.3397   -6.6646    0.1599   -3.2182    3.8427   -2.7282    1.1339    2.6630    2.7855
    0.5699    0.0262    0.2548   -1.7016   -1.2199    1.2038   -3.0014   -3.9445   -2.6474    1.6171
   -4.9837    0.7910    7.2134  -13.4479   -0.5739    1.1039   -6.0878    0.6665   -0.3953   -5.9991
    3.0268   -1.6163   -2.7681    1.6154   -5.1740   -1.8814   -2.4695   -2.2865   -0.5070   -0.5421
   -2.0694   -1.7312   -2.1714   -6.0652    0.5318   -0.4677   -0.0762    4.9141    1.9125   -0.3422
    6.5864    0.9682   -0.4572    3.2382    0.7131    0.4966   -2.7679   -0.4771   -6.5919  192.1317
  -18.3780  -23.8633    1.0348  -18.0321   -6.2526  -14.2273  -13.3320    1.8730   15.5228   -8.8706
   21.3524  -18.5946   30.6166    1.3431    7.7352   41.7374    3.5025   -0.6562   60.6952  -36.8056
   -0.8575  -12.4428    5.1606   -2.5137 -227.8797  151.3696  -11.2473   22.2279  -18.2788   15.1111
   -1.5251  -22.8680  -18.9697   16.7846  -22.3496    8.8460   14.5825   -5.1284   12.9975    2.1721
    6.1015  -17.4256   10.9250   -9.4458   15.5525   -5.3896   -4.0797    1.5832    2.4061   -3.4840
   -3.5598  -45.0575   -8.4967   -2.6746   -8.7486  -11.5157   -0.0162    2.6058   27.6527    1.8488
  317.8416
    6.0986   24.6667    2.7965    7.3144    3.7045    9.3972   10.4288    0.3765   -9.4424   19.6491
  -12.1633   14.0919  -32.8503    1.9216   -4.2464  -24.7780   -5.6408   -0.3667  -30.5616   12.4152
    1.5658  -10.5100   22.6963    1.5747  157.1880 -158.8958    7.4108   -7.9448    3.2921  -10.5059
  -19.0268   31.6058   14.8384  -20.8718    9.3055   -6.2493  -15.7205    3.9108   -9.7114   -1.9573
  -13.4924   11.1762  -25.2670    5.2453  -11.0191    0.3858   -4.7209   -1.2379   -6.4089   -3.8598
    3.1837   29.9309    5.8899    2.6457    3.8888    8.7264    0.1746   -8.5740  -23.7382   -2.0634
 -100.5860  275.7230
   -0.4266   -3.0363   -0.9510   -1.1728    0.2815    4.8847    1.0178    3.4568    5.1970    2.7903
    3.0271   -0.3631    2.3448   -1.9609    1.7686    5.7036   -1.9355   -4.7858    4.8966    0.8286
   -5.4314   -0.0909   -1.9627   -5.6285   -5.8385    1.7908  -14.6612   -1.2869    1.0402   -5.3396
    0.0467   -2.0427   -3.9562   -1.2958   -2.4500   -3.6583    1.6073   -0.3139    1.1550   -0.3444
    2.4922   -0.6724   -1.6450   -1.7289    2.9688    1.0899   -2.6873    6.9501   -0.8156   -1.2615
    6.0727   -3.8416   -1.0478    2.0620    0.3806   -0.1687   -2.0790    1.4594    3.4255   -8.8879
    3.5520   -1.9451  189.4891
   -3.4689   32.5362    4.6810  -18.3337   27.0302  -13.3583   -5.8649   -6.5958   11.7763   26.3663
    2.9680   -6.6272   -7.1007   -0.7780    8.7227   17.3941   24.0770   -9.4792   47.3250   -9.2227
   -0.0101   34.6570    5.9868    9.0803   -8.5892  -29.6215  -12.4949 -329.9043  -96.8287    5.8898
    0.9222   49.3870   -8.1258   58.0769   -6.7197    5.6219   49.5256  -39.3845   -0.2783   -5.4849
  -28.3631   -6.5004   -1.1579    5.1280    9.5051   12.9459  -16.9005    1.3470  -16.9937   -2.6435
   -2.2508  -22.9252   -8.2802   -0.3191  -12.3738  -34.6011    0.2935   13.8443   45.2878   -2.2828
  -11.6013   12.9454    2.8018  384.8193
    4.0282    1.7276    4.3103   -7.5500    2.1367   -4.4893    1.2777   -2.6771    4.7601   11.8018
   -5.4297   -1.8577   -4.4813    6.0806    2.8094    7.7350    5.1734   -3.3301   10.6852  -13.3555
    0.8216   34.8796    7.3572    1.4956  -30.8359   -7.9289   -4.6928 -111.8963  -57.2467    2.4842
   32.7514   32.9736   -1.9643   -1.2584   -9.6823    2.0569    8.7974   -8.8003   -0.4568   -1.4573
   -7.5114   -3.2533   -7.5160    4.8384    2.5357   -2.0714   -6.9450    0.5325   -6.2465   -5.2983
   -0.1671   -3.8571   -0.9608    0.5339   -1.6570   -6.6660    0.1489   -0.8901   15.9255   -1.3551
   -3.7282   -4.3610    0.6401   61.8832  216.1762
   -2.1114    2.9162  -14.0582    2.4866    2.3110    2.1745    2.1523   -5.1333   -0.5021   -3.8787
   -2.6343    1.8924   -2.6670    0.8857   -3.1431   -4.6002    5.8378   -1.8567    5.1090    5.0768
   -3.1965    2.9252   -3.7645   -2.2376    6.0487   -2.1351   -5.4257   -0.6603   -0.7708   -8.9061
   -2.4483    1.0490   -0.9182   -3.9248   -1.2818   -3.3452   -0.0306   -2.5710   -3.1550   -2.6022
    7.2481    3.9931    0.8177    2.6488    3.4558   -1.7708    0.3520    3.5108   -2.1791   -0.7130
   -0.2625    3.3008   -0.0364   -1.3845   -0.3246   -3.8168   -1.1236    0.8309    2.4714   -1.4910
   -3.3643    4.4755   -6.0807    1.8244    1.7762  191.0685
   -4.0905   -2.0918   -9.9861   -4.8973  -17.7524    2.8110   14.2172   34.5160   -0.0986   -2.1598
    9.9789   -2.3796    1.0260    0.9639   -2.1845   10.4147   -1.3626    2.9640    0.2695   11.5185
   -1.0768   -5.9016    4.3782   -2.1736   -8.6333    0.6203    0.0812   -3.9617   -3.4859   -2.7704
   -6.1187   -6.2594    3.4610    5.3872    1.0234   -1.2816   -7.7487   -4.5515    3.7455   23.6643
   20.6684    0.2018  -62.0385  -92.1782   -0.3644   -0.7030   -9.0250    0.2305    3.2203   -3.7820
   -1.1596   -4.9923   -1.1918   -0.7259   -1.6973   -3.2379   -1.0427   -3.3191   -2.8539    1.6247
    0.0005   -6.4604   -0.5686    0.9424   -5.4898   -3.0956  211.9378
    2.0710  -16.7529  -19.8612  -24.1032   34.9209    8.3373   21.3281   48.7380    0.5442   22.3879
   36.5053   -8.4998   17.7930   -8.8741   -3.0278   22.0557   -9.9177    8.5318   -4.2255   39.8244
   -1.9056   -4.4778   20.1119  -10.4905  -18.2693   -0.0868    2.3342  -15.0133    7.9129   -3.2871
  -14.4713    0.5648    6.1512   -8.8917    4.9472   -1.5177   11.1687   63.7447   13.5642   20.1247
  -20.2319   -2.0313 -102.5504 -321.2207   -2.8144   24.2727  -29.6509   -0.5259    8.5593    4.0729
   -1.5689  -31.3424  -10.1886   -0.7382   -7.3160  -10.1099   -2.6537    0.8008  -19.6744    4.4312
   10.7904   -5.5450   -0.5968    6.1077    1.8218   -4.5308   55.4453  384.9710
   -1.2529    1.2634   -6.7221   -0.2086   -6.4026    0.4861   -1.1998    4.7167   -3.4738   -0.2061
    1.7139   -3.8376   -1.9268    2.1398    0.5675    1.8216   -2.2789   -1.0753   -3.2766   -1.8613
    1.3478    1.9838    3.3657   -0.3661   -0.2506   -0.8217    2.0097    0.8847   -0.1968    2.6392
    2.4047   -2.1373    3.3726    3.5297    1.7230   -2.9996    0.7157    1.5335    0.7216    4.1451
   -3.9280   -0.0093   -1.2875   -2.1570  -10.1348    0.1872    1.3102   -3.2547    3.7545    0.6749
    0.3385    0.9538    0.6311    0.5860    0.3355    0.1066    0.1759   -1.3506   -3.3599   -0.2898
   -0.7080   -1.0340    2.5860   -1.8917   -1.7652    5.7396    2.6652    3.9099  195.7556
  -20.8358  -31.2698   14.6678    5.1409    1.2177    2.2276   -1.0114   -3.8867   11.1321   -1.2119
   -0.2308   -1.5243  -21.9447   -1.5531    5.7694  -15.7838    4.0827    7.8701   -7.6245    9.4760
    1.5152   11.9036    9.9626   13.9149   -2.5344   11.2810   -5.4667    4.6322    6.8132    1.7050
   10.0140  -18.0490    6.8376   -4.6666    1.4239   -5.3832  -15.5010   16.0621   12.0199   -2.6624
    2.4151    0.7405   -2.6318   12.9908    2.3466   -3.8270    5.5623   -1.6245   -3.5095    1.4368
   -1.3336   11.1505    4.4252    1.1533   -1.7724    0.1074    2.1072   -7.3483  -14.5360    2.6046
   -8.4517    2.3328    6.9539  -20.4234   -6.6562    3.3540   -2.7431   -7.8325   -0.7805  212.1710
   15.7215  -32.6256   14.1929   15.3414   22.6492   15.7927   -9.6576  -35.1169  -18.8601  -16.3162
   35.7651   11.1468   -8.1732  -13.1942    9.4251   -5.8365  -34.7824    2.6235    8.0558   -1.1532
   12.9792   10.4907    2.3251    5.4862   -0.1417  -16.4250   10.9940    5.1636   -3.9544   11.2084
  -30.0746    2.2155    0.4642   28.3891    0.9824   10.2778   11.1472   35.2918   -7.4565    3.7063
  -26.9243    7.7516   -8.1771  -23.8080  -27.0544   -2.7514    0.3246   -6.4300    8.4983    3.5568
    1.1637   -9.0048    0.1837    1.9630    1.9094    1.8313    3.4704   -0.3826   -7.2017    6.3049
   -2.3662   -0.8348    3.8364   -0.6428    0.0649    4.2829    7.4310    9.5056   -2.9718   -6.3249
 1372.4518
   30.6699   12.5275  -63.9134  -54.3222  -23.8379  -16.0620   -5.8840   22.2872   -2.1546    3.7918
    0.5301    0.6677   34.5553  -26.0868   -8.7885  -25.2634  -28.9770   -5.7539  -18.4274  -10.4855
    9.1037  -19.6896  -12.5746  -20.0206   19.2509   -3.8061    6.9764  -16.2649    3.5709   -2.7206
   18.0822   15.9935    3.3031   21.7208   -9.2440  -10.2122  -41.6209   -5.8922  -13.9247   42.9760
    0.2402   14.0892   22.3487   27.2946   -6.0494   -6.9462    1.2234    0.8968    4.6443   -1.1784
   -2.1284  -11.4473   -1.4594   -0.4443    6.5803   31.6328   -3.0175    2.6462    5.5513    1.1209
   -0.9084   -5.8237   -2.5473    1.0101    0.9746   -2.8551   -6.8654   -3.8053   -0.2422    1.2868
 -129.5038 1163.8123
  -36.0106   33.1063  -18.9337  -20.7933    3.7550    5.4585  -13.5910    8.1213    0.9573   -3.0359
    7.6106    9.5607    1.6682    0.0560    2.7934    7.4119   -8.0479    7.8317    2.1877   -5.8593
    5.2876  -21.8296    3.3773  -13.8249  -14.0241   -1.8968   17.9709  -18.6017  -11.3398   -2.8204
  -14.8733   23.8926  -10.0190    8.1525   -2.8252   15.7932   12.1081  -19.4642   -2.8777    7.5372
   -2.4986    2.8056   -4.2765  -27.0302    9.6019    4.4578   -6.6113   -1.1193    6.2611    1.4671
   -2.4572   -5.8578   -1.1129   -0.4282   -0.5098    2.7950    2.1313    3.8183    9.0545   10.0819
   13.3893   -8.1458    1.7442   18.2159    6.9807   -1.2424    5.0543   22.6818    1.1173  -49.8659
   11.5439    4.2430  229.2749
   -4.5568  -28.2908  -24.2201    1.3457   -2.1218    7.9662    6.5725   35.4992   -5.2022   31.6575
  -36.7021   12.2139   29.3698    1.5227    0.8315   -6.3324   -4.1680    9.0332  -17.4757   -5.6158
   13.0882  -36.8150    8.0393    7.6432   44.0180    9.8367    9.4106  -34.8370   -9.3118    8.4199
   24.6255   -4.7325    8.5483   -3.0000    9.8374   -4.3146    1.1262  -27.2353   -2.4945   -2.2350
   37.3200   11.8409   -6.8043  -37.7928  -16.3200   -0.4508    6.3391   -1.5129  -13.4212    4.3326
    1.1185   -6.2997   -2.5354    2.8220    4.4815   21.4126    2.1956    7.6814   -3.5814    2.7516
    2.0226    1.9725    2.9970   10.3888    9.0597    1.5628    8.7260   15.6644    1.6892  -16.4199
 -816.7868  155.9873   17.7449 1420.0248
   -2.5158    9.1382  -27.6343   28.5791   -6.3314  -20.1928   -9.9666    1.3543    3.7345    4.9313
   23.3123  -16.1520  -16.1952   -9.6668   -4.3731   20.3389  -20.6466  -14.9964   -0.0973  -22.5737
    8.8222  -20.4140  -11.1522   -9.6820    3.2938   -4.3329  -10.7469    0.8018  -27.8158  -24.4228
    0.1346   26.3163   23.7148    9.9159   -9.8360  -27.9631   -1.0563   23.0108   -4.2014  -14.5776
    2.6699   -6.8532  -12.1969   -3.8764   -3.9857   -4.2000    4.3029   -0.9393    6.8551   -0.5890
   -7.0021   -3.4959    1.3445   -4.3465    2.4754   14.4549   -1.1451    6.7650   24.8566   -0.3471
   -7.9945   12.5336   -1.7607    3.0176    5.9105   -4.3941    0.0240   -8.7485   -0.6996   -4.6105
  250.6299 -213.4476    8.7420  -33.4923 1152.5272
  -16.5173  -31.7418   19.6298   15.2655   -6.3326    3.1265   -4.8990  -12.3460    7.9880    4.2129
  -11.0131    1.4374  -18.9603   -4.2123    3.0408  -16.0883    4.4199    5.9556   -2.6827    6.3763
   -0.9556   20.2126   -7.9596   15.1395    4.4523    5.7783   -9.4485    6.2205   14.0101    4.5162
   16.4473  -17.8558   -1.0265   -8.5663    8.8504   -2.9101  -16.5875   22.0464    7.5600   -2.5615
   -5.8377    1.7030   -2.8608   21.5900    3.7820  -10.3401   10.2184   -0.1889   -3.5005   -0.4292
   -1.0270   13.2791    3.1341    0.3836    0.1830   -1.5510    1.9169   -3.7642   -4.5678    0.9774
   -9.9233    5.8857    4.3345  -16.7475   -4.7342   -0.4714   -6.4923  -15.5444    1.4449   16.2227
  -11.4345   -0.5359  -50.6647  -20.3490   -8.1982  219.3596
   49.3562  -30.6490   -7.4384  -12.4030    5.9116  -12.8719  -20.1598    2.4505    3.6663  -29.1522
    9.7670   -1.7272    1.7140  -15.1479    9.0670   21.3722  -36.4676   -3.0097  -26.9704  -11.0763
   -0.5885   23.9715  -11.3045   23.9516  -23.9169  -11.7676   -4.9253   11.2927   16.6894    4.8094
   -3.6150   10.9467    5.0731  -20.6975   31.8644   -5.8112   28.6232  -31.8986    0.4268   52.7656
   12.7990    0.5051  -13.5886   41.1463    9.9468   -2.8932    6.8098    1.9361   12.5001    2.0748
   -0.3750   -4.0965    3.3085   -2.6022    5.6597   34.2729    4.1401    2.1760    4.6507   -2.0647
   13.0500   -6.6999    4.1927    7.6439    0.6095    0.6938   -2.1490   -9.9338   -0.8540    9.0139
 -191.5270   45.2078  -27.4239 -404.1285 -341.7561   24.2553 1413.4861
   -5.8852   -2.7958   -2.9089    7.1840   -5.3408    1.1123   10.4349  -48.8834   -4.9328  -33.0287
   10.8053    0.4811   28.5639    9.5035   -9.5412  -49.9518   34.4757   -1.3901   44.6184   -5.6391
    2.4536    8.6752   23.1107   -2.2556  -13.5518   -0.6179    2.2530   -0.8298  -14.6968  -38.2206
  -19.8010  -20.5985   47.1037  -22.5926   38.2055  -25.1343   24.2436  -12.7852   -8.7076   21.7773
  -40.8906   10.6798  -22.4965   16.3565  -14.6044   -9.2866   15.6324   -3.1562    5.6699    7.9487
   -3.9435   -4.7103   -7.1880   -1.7683   -5.5891  -19.9612   -1.6202   -0.3289   -7.4017    1.5858
   -5.6118    8.1875    0.8348    2.4342    3.3548   -1.6445    3.6076   11.9258    3.5707   -1.5837
 -106.2605   53.1154    0.2464 -227.3335 -350.0044   -5.6190   63.6067 1319.8358
  -23.3941    8.8621   -1.8199  -13.3407   -2.9410   10.5911  -15.4274    9.0821    2.0332    0.7915
    2.0197    2.8471   -0.1144  -12.7759    9.9329    2.4993  -12.9065   -0.4844   10.2157    7.4861
    4.6299    1.3160    9.0536    3.8379    3.6652    0.8490   -1.9454    1.3560   -2.3670   -5.0921
   -4.1109   -5.5335    5.0436   -6.7830  -14.0209   -1.2460    0.1993   -6.2543    3.8736    7.3404
   11.0313    4.9292   -5.3459  -16.4024    1.1769    3.3810   -9.3931   -0.3339    6.6969   -1.7860
   -0.6493   -3.3682   -1.8756   -1.1679    0.9180    2.9999    2.2062   -0.3212   -4.2836    3.5670
   -1.7005    3.1411    2.0898    1.1405    0.9983   -1.9518   -0.9855    2.5928    3.0091  -16.0185
    8.7728   -5.0096  -11.0048    3.2114    1.4210  -20.2346   -1.6413    3.8782  190.0504
   -1.3803  -42.0797   -6.3056  -16.4969    0.6376  -30.8454   38.2617   26.5459   21.7907   22.1695
  -23.0324    3.4198  -10.6561    3.7152    0.3574   -5.8014  -35.8627   13.8452   23.4271    9.5625
   -3.7668  -21.5129    1.3816   21.1109    9.4476   30.0766   -4.5145  -11.9191    8.9436   11.1136
    8.3078  -23.0719    1.0672    4.8055    8.0531   14.4243   -0.4229   -9.5597    4.3988   -6.9534
   -0.6433  -20.0490   12.1207   19.1251   32.6457    3.6678   -5.7579    3.7077  -34.7172   -7.6794
   -1.3037    6.4798    1.9812    2.4981    2.7397   19.0551    2.4070   -2.8607  -12.1122   -0.3335
   13.1280  -16.2524    5.1599   -0.7993   -6.3241    4.8308   -7.0977   -8.6844   -7.4879   25.1685
    7.3136  -79.8608  -28.3244 -117.8149   -9.1124   24.5528 -530.4257  104.4097   -3.7676 1333.5378
   15.2249  -14.6503  -44.9428    7.0727  -28.5822   -4.9682  -17.8218   20.0495  -16.3186   16.6227
  -10.1868    4.7605  -24.3304    9.4701   -6.3829    3.5075   15.1048    2.8584  -16.0723   12.1633
    4.4009   13.0290    4.9253   -8.0348   27.3003  -10.6715   20.0521    5.3781   22.2157   -6.0017
   -7.9008    7.0356   -0.9252  -13.0802   11.4342   -6.4727  -26.3839    8.9839  -17.2285   16.2079
   -8.7002   18.7358   21.9956    7.4876  -21.8106  -21.1660   21.0915   -3.8386   -0.0461   -4.7635
    2.5106    5.0528   -0.6478    1.4888   -6.3741  -22.6570    1.7050   -8.8285  -29.1264    0.8861
   -6.9094   -1.1593   -0.9805   -4.0301   -4.4690    1.8958   -6.4657   -5.1304   -3.0307    3.2967
  -17.1309    8.7040   -4.3076  -54.2644   -1.3586   12.0601  172.2885 -168.2398   -0.7904  255.1056
 1221.6461
  -43.1983    0.3066    3.5933    1.3409   -7.6673   -7.9233   16.8164  -30.4138    7.2715  -11.5328
   -2.2231   19.4115   -5.7508   -4.6484   -9.6752    8.4014   -2.9163   11.7906    0.8778  -13.5420
   -5.2537   -5.8054  -12.9663   -7.7693    3.5755   -3.0042    6.4964   -8.1469   -1.6779   -0.8319
   -8.7767   13.1795  -13.9981   10.7248   19.1352   16.7658   13.2862   -1.2200  -11.2243   10.6391
  -15.8755   -4.9248   -4.7233   -8.4843   20.5818  -10.0334    9.2831    4.1783  -10.9224   -2.2926
    2.0444    4.4024   -1.5505    4.0395    1.1398   -2.0295   -0.4264    6.0717    9.1753    0.2844
    6.5912   -2.1303   -2.9894   10.3716    4.5170   -0.3666   -0.0995    4.7473   -1.7483  -19.9550
   -1.5293    6.6583    8.4516    9.2727   -1.1397  -20.7879  -12.4309   -4.1767  -20.0507    4.0188
   -1.7588  212.8253
  -18.9261  -33.6069    8.4469   33.0371   16.5341  -27.0370    2.2464  -23.8371   21.8553   18.4068
   -9.9237    2.0956    2.7878  -58.1391   -1.3510  -12.3992   17.2712   18.2473   -0.7384   -8.4623
    5.9183  -10.7421  -22.9320   15.5734   -3.2865  -23.4499   -1.4517    7.1061  -20.8577   23.6055
  -10.1887    1.3497   -8.2351   28.6321  -43.5666   18.6381  -18.3192   50.7449    5.6286  -17.0523
   -9.7635  -20.2505  -21.0428   -9.5929   24.6278    3.8758   -1.9082    1.5698   -7.5603    2.3308
   -4.5708   14.1815    7.2788    3.6956    3.5709   18.3458    1.4479   11.4416   29.7633    5.3059
  -11.7189   14.5258    5.9923    3.4084    3.5764   -1.2148    0.9876   -8.3225   -3.7556   31.3814
   -1.8993   21.1200  -29.1164   21.1801    2.4050   33.7904 -130.3322  -31.3322  -17.8124 -582.5213
 -463.7405   18.0937 1248.8148
  -28.8262  -26.1296  -17.0396   -5.2501   -4.6392   -7.6478    6.3704  -58.6572  -11.1283   -7.8308
   18.0060   23.8154   -9.8032    7.4031  -13.7173   -8.0958   53.1062    7.9185    8.4700   55.2104
   -2.0752   26.6279  -17.4022    4.4049    1.8925  -14.5915   10.2299  -38.3456    9.0256  -25.5613
   15.1185  -36.0978   23.7471  -10.2577  -26.0705    5.5117  -17.7220   38.6094  -22.9163  -11.2538
   12.1111   -7.3037   30.9374  -64.2727    6.1947   -8.1150   14.4707   -2.6671   12.1516    8.6467
   -2.1829    4.3221    0.9917    1.9379  -10.1766  -41.8255    0.7804   -1.8856    9.2322    3.9064
  -24.2786   21.5504    1.1614    2.1489    4.4269    1.9518    9.8395   22.0548   -2.9466   -5.0061
    9.0020   35.6421    9.1372   48.6500   -0.2994   -7.3138 -102.5589   33.2700   -0.4617 -382.0540
 -617.1598   20.9584  247.7361 1359.4190
   -5.9582  -27.7572  -40.5870  -17.4272  -11.8287   19.8679  -34.9846   14.2872    8.3777   12.0024
   -2.9632  -27.5864   11.4744    0.8770   15.8467   -7.4603  -19.3417   -3.5162  -15.4454    1.7788
    8.7685   21.4751   16.1783    4.0325    7.7846   19.2315  -11.0168   25.0759    7.8291   -2.8462
   21.3640   -5.5741   23.3887   -0.3555   -5.8993  -29.8350  -22.2558    8.3188   30.4979  -16.2346
   -4.4490   18.0365   -1.2081   -7.8435  -23.4144    6.1507  -13.1401    0.3461   21.7120   -0.0983
    1.7460   -3.7490   -4.6170   -1.3981    4.8133    4.0745    0.3139   -6.1980  -21.6616   -1.8816
   -3.6192    1.9165   -0.7235  -29.4950   -8.5081   -3.8648   -1.7311    3.4343    6.8667   28.6589
   -6.4495    9.8038  -43.9905  -14.6150   13.6858   18.8449   12.5685    7.8303   -8.9089    4.2256
    6.5459  -51.8019   11.3163  -30.8443  270.1625
   22.9053  -18.2125   13.6104   -9.8395   -1.1921  -10.8648    9.1514    9.9577    5.7264  -22.2975
   30.7582   -5.1557    4.8596   -8.5920   -3.0318  -17.8654  -30.5443   13.2077  -17.2751   19.1945
  -11.7825   32.5526  -15.6643    6.5015    4.3495   -4.8566    8.2325   -5.3448    0.8373   11.4603
   13.5921   29.0096  -19.3992   33.5888  -10.6929    9.2541  -18.1185  -31.0829    8.5777    8.4550
   45.2992   -3.0066   -5.5615  -22.4171    6.8223    8.6054  -12.8789    2.3086   10.9186   -3.8970
    2.6927    2.9857    3.5643    2.0958    8.7840   10.9134    0.7848   -6.6253   -5.6689   -1.9377
   -0.0496   -5.7105   -1.4222   -1.7256   -8.4732    3.5625    3.2214    9.5817   -4.6388   11.8857
  -28.9476    0.3884  -12.0691   11.1614   -1.6154   18.9926   -5.5086  -32.3711   -9.5437    0.6653
  -18.3752    6.9611 -149.3133  135.6513    5.2684 1401.4889
   -4.9936    2.1992  -47.1924    4.7528  -45.8320   -4.0450  -11.5394   23.2053   -5.6720   13.8236
   -0.4307   12.5806    2.3906   24.0085   -5.1962   13.5248   25.3261    4.0999    5.7552  -36.3976
    8.1541   -6.5209   16.8537  -14.7418    6.6161   -6.7509   22.6903   -0.9287   -2.1075   -8.5792
   -0.3715  -16.7286    3.3078  -22.7815   47.2932   -1.0728   -2.5681  -35.5102  -10.1640   34.0792
  -31.1164    6.2462  -42.5765   31.0848   -1.4233   -3.8963    7.1060    0.2551   16.8345    2.4021
    1.5640   -9.6828   -5.4584    1.8910   -5.2800  -24.5264   -0.0008   -3.0191   -3.9063    2.7893
   -8.0100    5.5524   -3.4560    3.3210    0.8854    2.0074    3.0833    1.2545   -2.7621  -22.8576
    3.2001   -2.9215   22.9422   -1.3703   -3.3985  -23.4972   70.2144   -9.3888    1.2853 -107.1274
 -122.7371   10.9211  154.9205 -625.9241  -20.1963   48.8945 1477.8706
  -37.0813   30.3392   38.6171   -4.1725  -10.4842    9.4200    3.8455  -12.3086   -6.9952   -7.2412
    4.2701   18.2840   -6.5782  -17.4835   -0.5477   10.2640   -5.7845   -1.4290   18.8915    8.3008
   -7.0825    2.8753   -4.5591   -6.7418    6.9648  -16.7382   -1.5847  -13.4638   -0.0767   -0.6063
   -8.7722   -3.6870  -15.7371   -4.4254   -8.8963   17.1366   13.5096  -15.3332  -13.5797   27.3744
   -2.6244   -5.8321  -16.6232  -29.1245    4.3394   -3.5251   -1.7000    3.3176   -0.8636   -4.0038
    7.3880    2.2064   -3.1199    4.1487   -0.1151   -7.5577   -0.9221    5.2192    2.9635   -5.7087
    0.4878    2.5564   -6.6287   17.6960    4.8607    0.3310    2.8899   11.1438   -1.3414  -25.5445
   21.0245  -18.2586   29.8145   15.4029  -17.5204  -28.1656  -10.4359   -0.8638   -2.3906  -22.0188
   -9.8415    5.4694  -28.0278   20.4857  -61.4803   -5.7313   12.1414  225.1509
    7.1377    5.7081   14.0732    3.4252  -40.8671   -3.1381  -32.2110  -11.4239   -1.0600  -21.9594
    3.3596    4.5789    4.1458   17.6335   -0.5923    5.3273  -12.4729    7.5223   -3.2261   13.5798
   -3.6545   29.9827  -21.0741    7.5124  -11.1820  -18.1754    4.5989  -10.2572  -10.1912    3.3132
   -3.5556   19.5722   -3.4835   -1.2187  -25.5307    8.9403    4.0639    2.7669    0.5971   28.5340
  -13.3072   -7.1303   -0.8346  -23.9984    6.1444  -14.2453   14.8019   -0.0416   29.6309    7.5626
   -0.0707  -15.8501   -8.6671    0.7633   -4.4166  -16.8103    0.3099    1.5633   -3.9064    2.2102
    0.9483   -6.4461    1.0690   12.1686    2.1867    2.1266    8.1359   15.7458   -2.4196    1.9694
   19.0750   -6.7858    0.5376  -21.1628  -12.8784    1.0805   15.0163   -2.6679   -1.8902   -9.5138
   11.8990    9.2229    0.8317  -34.6115  -16.1110 -403.6728 -355.3705   22.4346 1157.5342
   12.1045   10.2461  -14.5147   22.3997   20.5207    6.7263  -28.3508   -4.9072  -14.3464  -38.6951
  -22.5593   -3.0422   -1.9507    6.5110   18.2432  -10.8104  -56.0539  -11.0861   -5.9594    3.2263
    4.9213    9.9816  -18.9796    3.4791  -21.4448  -15.9575    4.5556   45.8349  -28.7933   13.2531
  -22.6404   38.0279  -16.8102    6.6774  -29.2475   23.2208    9.7877   17.6810   -1.0126  -47.6544
   39.7926  -15.2952   23.0429  -11.9173    0.5146   -1.1551  -11.4832   -5.4393   17.5529   -5.0543
   -2.8988    3.1560    4.6048   -3.6369    9.9433   38.3109    3.7600   -1.0758   23.6752    8.1728
  -13.4701    9.0409    3.9681   -7.0525   -0.9728   -3.4846   -8.1938  -13.9821   -0.1874  -10.7749
   18.9020  -23.2150   20.4862   -2.2549  -18.9183   -5.8425  -21.7716  -15.5836   10.3171   42.3209
   18.7530   -6.1068  -69.1109  -83.2105   -9.3112 -270.8750 -406.7783   27.6836  -20.5363 1442.9481
  -27.7609  -28.6840  -37.3047   -1.3633   -7.7810  -20.2902   -5.1849  -10.2419   16.1082   -2.2211
  -11.3293   -3.5894   12.8821   -5.6825   -6.4016    4.5717  -21.8119    2.6922  -14.4699   -6.1813
   -3.1414    1.2536   -0.4453   -9.6939    6.2882   11.1548    0.0434   28.3959   13.5238  -11.9484
   -0.8769    0.4565   10.6819    6.3445    5.2560   -6.7341   -0.3498    8.1635    2.2450  -16.1710
   -9.4415   -5.3564    5.2390   12.4455   20.3858   -4.2068   -1.7270    8.4216   -2.3789   -4.3685
    2.5369   -3.9195   -3.7303    1.9493    5.4901   11.4789   -2.5010    0.7461   -7.7486   -5.4764
    5.7395   -3.0745   -8.7663  -16.9716   -4.7443   -3.6250   -7.6050  -14.7222   -0.5129   22.4634
  -30.0695   17.4047  -14.1310  -18.8689   12.3842   12.4368   18.0749    0.5389  -12.7597   32.3560
   13.9921  -10.0147   29.4531   -1.8580    7.1015   15.7678   -1.1656  -47.6442   -2.3432  -20.8372
  223.3017
   15.6821  -35.7330   26.9142   12.9148    3.5813   -2.2690  -28.4647  -67.1185  -15.7910  -12.5417
    5.8022    7.7564    6.2136  -10.8545    1.9202   -7.6325    8.8893  -12.6425    7.3238   18.7144
    1.6401    1.7148    3.2934  -11.2708  -14.6406   -9.5295    2.4000    8.9220   25.4059    5.8295
   19.6773  -42.8923  -26.1420   -8.4438  -27.5071   20.4517  -50.4114   47.2525  -10.3633   55.3241
  -27.9048  -25.3168  -31.5484  -12.4255   18.1654   -4.4994   17.3366   -1.9713   37.8107   12.9224
   -2.4234    4.2352    7.5488   -3.9352    2.1565   -0.8922    1.6553    2.4087    5.1336    6.0277
   -5.0072   14.4547   -0.4558   -9.3010    0.6056   -7.5156   10.6621   24.8322    1.1764   -1.7641
  -17.5389    1.3010    2.2221    0.3521   12.1185    1.5574    7.9567    4.7109    6.5893   -0.1231
   -0.8214   -7.6004  -15.1021  -22.4491    3.7707   96.9364   -0.9491   -2.9221 -266.0671  207.5029
   15.1938 1238.7863
  -16.8027   11.0192  -39.9493  -10.7463   14.9986   -9.6320   19.5605   32.1634   -1.9264   15.7339
   -6.5395   -7.6469   28.4047  -21.2508    6.0175   -5.3014   -6.8734    7.1984   -8.7147  -51.3023
   10.8969  -42.6828    0.6307   -2.8877   -4.5933   28.4304   16.1701   31.7385   18.9718   16.1164
  -11.2232    9.5708  -15.2946   16.4006   -1.2073   -0.0314  -14.9744   -9.9424    4.1693   -9.8033
  -17.9635   -4.0950    3.3823   50.4588   -9.4781   21.2005  -33.1428   -2.0939  -33.2963  -15.1674
    2.2879  -16.1897   -8.8459    1.4964   -1.5792    6.0580    3.0165   -4.3611  -12.5270    1.8601
   23.0107  -27.9466    2.5287  -19.9076  -13.5967    2.9676  -18.1971  -48.2678   -5.3374  -23.5578
  -46.3127  -50.6658   25.8815   -8.2871   -9.6981  -27.6646  -17.7502    0.0239    8.2293  -33.8421
   -6.2732    1.7729  -18.7242   35.1092   -4.9844  -77.2695 -117.1800    0.1693  299.1907 -850.6074
    9.6293 -180.0058 1380.4682
    5.2681   -1.0687    7.1339  -18.9655  -14.0949   34.7253  -15.4091  -10.6223  -19.7298    4.5271
  -11.9379    2.6472  -13.1382    7.1336    4.6460   -5.5547    8.5430   -5.9176   10.5911  -24.7953
    0.9605   16.3225  -21.8018    9.5176   11.4563   -3.6812  -15.0837  -19.2425  -16.1308   20.2266
   -0.5012   11.0209  -17.8495    0.1876   27.3316   -2.6876   -9.9799   13.3697    0.2208   12.8842
  -16.2317   20.2319    4.2472   -1.1785  -34.3027   -4.0207    1.5473   -2.2287   10.6776    1.3080
    5.0873    4.2133   -3.0321    0.1406   -0.5654  -16.0765    0.1855    2.1822   14.3162   -5.2751
  -11.0156    9.9163   -2.3068   11.0830    5.1885   -5.3474   -0.7968    2.1388    7.1662   -7.4638
   39.1050   -0.7917    0.1204   32.0487  -17.5950   -5.1788   -6.2570  -17.1736   -0.7657  -36.9393
   -1.0704  -14.9154  -20.4868  -21.9525  -11.7441   -7.5221    1.0007    9.7604   -0.7842    6.3793
  -61.4569   -6.0274    7.9609  269.6122
    6.2833  -95.9078   -7.8758    5.7052  -20.3643   -3.8143   30.7929   12.3541    2.9581   -6.6557
   25.5567   16.6332  -18.6838   14.8448  -16.4532    0.6550  -49.5498   12.7988    5.9711  -18.6968
   -5.8973  -33.4757   -0.1037  -11.9654   33.6275   18.1383   10.6202   21.7010  -11.8991   -2.8094
  -32.5768   61.1307   -6.7710   27.4773   27.9831    7.1521   17.6198  -43.2661   -8.8857  -42.3533
   45.1046    1.6692    3.8671   -5.8701    9.8669   11.9314    0.6894    2.9998   -6.8257    3.2609
    3.2894    2.0424   -3.7812    3.6340    3.4068   19.0476   -2.4272    3.0519   -6.3616   -2.0059
    0.2261    2.9343   -3.5809  -15.4419   -1.2465    3.0874    2.9948  -12.5207   -3.3075   -9.3166
   -4.6645  -16.4097    9.6651    5.7323   -8.1956   -7.5114  -18.2770   22.2992   -7.5426   -6.1969
  -40.5692   20.2843   22.5843   16.4682  -25.1576  -83.2364   18.3748    8.4654  -31.8816  144.8703
    4.1476 -598.0397   82.7545   -4.7853 1295.9305
  -22.7600  -38.7533  -41.4631   -6.4477   29.3833  -15.3768   20.8381   16.5246    0.0120   35.1511
    9.5922   -6.7483  -35.0008  -24.1404    0.7813  -17.3977  -26.2162    5.7518   12.5820   11.8527
   -2.2792   -0.8709    3.5911    7.4924  -11.7916   16.9997    7.2988  -39.4409    5.9357   -2.8649
   33.1520   17.7531   -0.3318   -7.4103  -12.4272   -2.6606    7.7549  -12.5637   -1.9976  -34.5580
   22.9641   -1.4617   -5.8711  -12.3113   -9.3843   21.3687  -22.1670   -2.3260  -23.2931   -7.7322
   -0.1442   13.3023    2.0541    1.8417    2.4191   12.0975    0.7012   -5.7581   -5.0000   -0.7121
    9.6792   -8.5319    2.4330   -0.3597    0.6289    5.5373   -1.4394  -17.0134   -6.3080   -2.9929
   10.9868   19.6461    4.8634   -2.0199  -23.3388   -5.9873    9.7921   -0.3631    3.4912  -11.2254
   18.7440    5.3066  -21.7394  -23.6974   -5.1790   -5.5589   13.3229    3.6940   99.3357  -41.3011
    1.4793  204.2028 -215.8945    5.3258   75.2815 1203.7832
 -132.3000   -5.1047  -14.1983    1.4625    0.3172  -20.6209   12.0161    8.2552   17.4728  -12.8188
[...]
    5.2732    2.3516   -2.1869  -17.1204   -0.8846  -31.9392   -0.9313   -2.5202   28.3944    2.5634
  -10.8705    1.3444   10.3345    8.4445    0.3992    1.5959   -0.6216   -1.1880   -0.7753  -11.9358
    0.3780   -8.1519    0.5870   -3.9305   -8.7065    1.3701    3.2464    2.0341    4.8131   -1.5622
   -4.3444   12.9238   -5.7166    2.5958    0.0113    0.3141    5.0604  -29.2876   20.8867  -11.5127
   -0.9855   15.8202   25.0881   -3.9698   17.0509    1.2348   -0.1362    3.8586   -7.6273  -11.4583
   19.1364  -11.6092   -0.2701  -10.4489    9.4479   18.6179   -7.5992   -1.7383    1.9948    1.4118
  -16.0747   -9.1643    4.8348   17.5184   -9.7006   18.9463   17.2248  -32.9246   71.8326  -32.4317
   -5.7791  -12.3704    4.2033   43.2426 -323.9135    1.3982  -91.1247   -8.5022   -0.6212   11.9390
   14.3495    0.0466   43.7778   -6.9107   -0.7017   -4.4532  -19.8054    0.7371   -3.2312  -10.8582
   -2.7855   -2.2927   -1.3357    0.4550   -2.0277    1.7525    3.9462   13.7439  389.9158
   -1.6299   -6.6855    7.5172   -1.6581   -8.6892   -1.0840    0.2065    5.8467    0.4877    2.3439
    2.7607   -3.4147    0.2686   -1.0018    1.1598    6.7673   -8.1464   -0.5884   -3.2897   -6.6133
    0.1573   -0.5119    0.4334   -2.6629   -3.4972   -2.4943    2.3198   -0.9884    0.6132    5.4375
    4.7468    1.4058    0.6798    7.0954    0.8984    0.4091    3.0827    1.5251    2.1349    5.4759
   -9.7147   -3.8759   -3.8599   -8.5774   -5.3240    1.6732    0.1094   -3.5576    3.9921    0.4135
    1.0369   -0.9675    0.0241    1.5402    1.0452    2.0735    0.1309    0.0099   -1.7136   -0.5379
    3.3593   -4.7679    4.8030    0.4942   -1.9302   10.3636    4.9153    7.9036   -7.1694   -5.8986
   -5.9631    1.5754    1.4274    0.4669    6.5260   -1.7666    0.3406    5.9335    0.5344   -6.1510
    1.5971   -1.2372    1.6811    1.6057    2.5125   -3.8179   -0.2619   -1.4939   -2.7812    5.7182
    2.1714    3.1852   -3.4926    6.2198   -5.3234   -4.5003    6.7429    2.9626    6.0458   -1.6265
    3.0162    2.3260    0.2550    6.1939   -0.7665   -1.9254    4.7698   -5.8029   -7.8760    0.2915
   -9.9549   -7.2845    3.5752    4.1685    0.3379    0.6296   -3.2263    2.0871    0.3225   -0.5435
   -0.2421    1.0149    0.8512   -2.1843    1.7700   -0.1502    4.8220    2.5365    1.5458   13.2053
    0.7270    0.9883  -11.8883   -3.4533    2.9992   -4.3320   -4.9684   -4.2000   10.0180   -1.7581
   -5.2416   -2.6028   -4.3251    0.3227    0.7968   -1.7161   -1.0531   -7.4177   -0.5336    2.4252
   -0.7836   -0.0730   -1.3117    3.6005   -2.4965    1.1437   -0.4686    9.1489    4.4946   -5.4530
    6.1144    0.9226   -0.2316    5.5766   -2.9048    3.8346   -1.0274   -5.4504    0.1843   -0.4400
   -1.3875   -0.6663   -5.6544   -4.2698   -8.8031  -11.6485   -0.1491   -4.7732   -7.3584    0.0712
   -2.6816    1.6499   -0.1795   -3.4669    1.1719   -4.5759   -1.3689   -2.6989   -1.6340   -2.9469
   -1.8717   -0.1413    5.9086    8.6620   -5.3516    1.1756   16.0515   -4.0054    0.0007  185.5903
    8.5016   -0.4432    9.9693    6.6330   10.0741   -0.5903    5.4050    6.0757   -4.1885   -3.0146
   -3.4092    4.0014    5.2857  -13.4419    3.5076   -4.0595   -5.1478   -6.4081   -2.8634   -2.7060
   -2.0003    1.9904   -1.9425    2.8255    6.3960    2.6246   -4.6629    1.8797    5.0255    2.9189
   -1.2256   -0.8701   -7.9557   -2.8648   -2.3697    6.4102   -3.2138    3.4999   -6.3156    9.0410
   11.4040   -6.8669    6.6016   -3.8051    2.8597    4.7020    2.7288   -1.0932   -5.6995    1.8301
    0.4825   -2.5197    0.5972   -0.3489    1.1115    8.3609    0.4267    3.9424    0.6135   -1.1336
    2.1394    5.6617    1.3847    0.4577    5.9206    1.4008    4.8624   -6.6887   -2.2777   -5.1850
   -8.6653   -1.6293    3.0934   -4.6719    0.6841   -1.0217    5.7806   -6.2017    3.7377    7.8856
    3.4108    2.3516   -4.9969   -1.4033  -13.6244    5.3936    1.2825   12.7353    4.9320    5.1571
   -8.9470  -10.0980    4.2825    8.7595    3.4961   -9.8789  -10.7901   -0.9573   -1.1239   16.0445
   -2.4023   -6.6453   -1.7100   -7.3022   -0.6150   -8.9176    0.5404    5.2778    8.1884    7.0301
    1.6848   -0.4268   -0.9699    6.5110    0.7507   -3.5023   -0.4321    0.5327    0.3938   -3.6757
   -0.0471    1.4106   -1.7393   -1.9492   -2.4929    3.7102    1.6879   -5.9059    1.7269    1.6630
   -8.3899    4.7339   -3.0613    0.0671    6.2995  -20.4555    1.1559   -8.4336   22.1145   -4.5527
    0.1740    6.7281    9.1442  -12.0012    2.2244    0.9890   -0.4134   -1.1319   -4.2251    2.4164
    6.7939   -3.1075   -4.5758    0.2340    2.9511    0.4241   -2.1574    0.5075   -4.2787   -2.1343
   -4.0205    1.7278   -6.8941    5.8064   -1.3994   -3.1398    5.7097   -4.6644   -4.2128  -11.5588
  -10.5596   30.5968    0.7022   30.3153 -101.0550   -0.3207  -57.6614   -5.9126   -1.3134   -0.8959
    0.2054    0.5749   18.9757   -0.1449    0.2151    2.2346   -1.5156   -0.0892    0.4716   -3.3705
   -1.2666   -4.4981   -6.4748    1.4649   -1.7710   -6.4491    3.3672    0.6271   59.3526   -1.9459
  215.0857


      MOLECULAR POINT GROUP   :   D3  


          ALPHA EIGENVALUES  
 -50.89659 -46.93443 -46.90617 -45.94130 -44.28363 -44.26969 -38.91852 -38.76405
 -38.74765 -37.27554 -37.17881 -37.16389 -36.93192 -36.72575 -36.71297 -34.13703
 -34.12011 -34.04078 -34.03394 -34.01935 -34.01445 -31.90390 -31.74252 -31.73189
 -30.84528 -30.83277 -30.73844 -30.70637 -30.59619 -30.57972 -30.15968 -29.65513
 -29.64582 -28.71869 -27.04534 -27.03628 -26.88614 -26.86862 -26.86841 -26.03894
 -26.02811 -25.96844 -25.41403 -24.89673 -24.87825 -24.76601 -24.68875 -24.67972
 -24.31288 -24.29673 -24.28337 -24.17605 -24.11790 -24.10757 -23.68390 -23.09115
 -23.06080 -22.92664 -22.85240 -22.80083 -22.78927 -22.73402 -22.72956 -22.62108
 -22.47971 -22.44389 -22.43961 -22.40825 -22.40341 -21.94387 -21.88528 -21.87556
 -20.96963 -20.95261 -20.93734 -20.81371 -20.81186 -20.80178 -20.58892 -20.57380
 -20.45566 -20.19640 -20.10168 -20.08331 -19.84343 -19.81275 -19.80341 -19.62204
 -19.44945 -19.43206 -19.36910 -19.25954 -19.25768 -17.99687 -17.92672 -17.90087
 -17.67184 -17.57613 -17.41355 -17.17993 -17.07567 -16.63650  -9.29980  -9.29259
  -9.28008  -9.27039  -9.24971  -9.23287  -8.46110  -8.44300  -8.42228  -8.07172
  -8.02075  -8.01384  -7.99164  -7.97189  -7.44437  -6.92557  -6.90900  -6.90580
  -6.29557  -6.28203  -6.25130  -6.02140  -5.99919  -5.66174  -5.56176  -5.54221
  -5.53804  -5.12426  -5.09472  -5.08568  -4.83410  -4.81342  -4.51499  -4.36613
  -4.35320  -4.33517  -4.32862  -4.31443  -4.25713  -4.24233  -4.22671  -4.10363
  -4.08724  -4.07577  -4.06691  -4.00142  -3.97929  -3.82359  -3.72492  -3.71792
  -3.67478  -3.59743  -3.58947  -3.50676  -3.47784  -3.47563  -3.45926  -3.42640
  -3.41422  -3.31911  -3.30020  -3.29265  -3.12419  -3.11445  -3.10547  -2.87709
  -2.81170  -2.79688  -2.76505  -2.72853  -2.70078  -2.69631  -2.68813  -2.67283
  -2.35269  -2.33040  -2.32563  -2.17402  -2.15976  -2.15603  -2.13857  -2.13296
  -2.11532  -1.98143  -1.96991  -1.96096  -1.95287  -1.94784  -1.93329  -1.81736
  -1.79842  -1.79297  -1.60522  -1.58573  -1.58016  -0.49554  48.37349  48.96743
  49.37642


           BETA EIGENVALUES 
 -50.82980 -47.01538 -46.95853 -46.01107 -44.37485 -44.32451 -38.91683 -38.76962
 -38.75312 -37.28103 -37.18051 -37.16666 -36.91936 -36.72912 -36.71453 -34.13876
 -34.11972 -34.04075 -34.03275 -34.02049 -34.01632 -31.88592 -31.73976 -31.73058
 -30.84673 -30.83638 -30.74147 -30.69157 -30.59367 -30.58015 -30.16606 -29.65618
 -29.64586 -28.66522 -27.04726 -27.03739 -26.89467 -26.87929 -26.87392 -26.03519
 -26.01823 -25.96081 -25.43745 -24.88510 -24.87195 -24.75789 -24.69129 -24.68039
 -24.31060 -24.29810 -24.28506 -24.14913 -24.11474 -24.11363 -23.69198 -23.03463
 -23.00101 -22.92174 -22.88019 -22.79989 -22.78793 -22.73544 -22.73291 -22.61969
 -22.46638 -22.44392 -22.43767 -22.41900 -22.40800 -21.94303 -21.88324 -21.87338
 -20.94708 -20.93136 -20.92409 -20.82742 -20.79946 -20.78034 -20.59321 -20.58735
 -20.47665 -20.18370 -20.06723 -20.04281 -19.87250 -19.84217 -19.82555 -19.52135
 -19.40208 -19.38670 -19.34790 -19.26267 -19.25652 -17.94160 -17.89632 -17.87501
 -17.45824 -17.41899 -17.38528 -15.94401  -9.75747  -9.57970  -9.33608  -9.25725
  -9.19620  -9.18085  -8.79741  -8.73439  -8.43102  -8.33579  -8.18700  -7.99456
  -7.90391  -7.84197  -7.70013  -7.59388  -7.39727  -6.92242  -6.90449  -6.87861
  -6.27773  -6.26956  -6.24307  -6.03265  -6.00372  -5.67621  -5.55953  -5.53728
  -5.53132  -5.11346  -5.08259  -5.07661  -4.79852  -4.76949  -4.50481  -4.35989
  -4.34909  -4.33040  -4.32252  -4.30767  -4.24165  -4.23338  -4.21305  -4.10150
  -4.08371  -4.07388  -4.06549  -3.98713  -3.96371  -3.82093  -3.71444  -3.70813
  -3.67181  -3.59110  -3.58115  -3.50476  -3.47426  -3.47194  -3.45355  -3.41938
  -3.40555  -3.31904  -3.30046  -3.29253  -3.12301  -3.11455  -3.10229  -2.88008
  -2.80952  -2.79103  -2.75931  -2.73234  -2.70389  -2.69847  -2.68585  -2.67158
  -2.35346  -2.33141  -2.32644  -2.17107  -2.15644  -2.15353  -2.13708  -2.13056
  -2.11485  -1.98203  -1.97074  -1.96163  -1.95308  -1.94852  -1.93279  -1.81743
  -1.79878  -1.79303  -1.60563  -1.58626  -1.58074  -0.17304  49.07210  49.73381
  49.73811


              NET ATOMIC CHARGES AND DIPOLE CONTRIBUTIONS

  ATOM NO.   TYPE          CHARGE      No. of ELECS.   s-Pop       p-Pop       d-Pop       
    1         Mn           0.655384        6.3446     0.79631     0.49306     5.05524
    2          C          -0.175144        4.1751     1.09635     3.07879
    3          C          -0.018522        4.0185     1.10375     2.91477
    4          C          -0.014973        4.0150     1.07226     2.94272
    5          C          -0.103963        4.1040     1.09342     3.01054
    6          C          -0.105852        4.1059     1.09336     3.01249
    7          C          -0.011382        4.0114     1.07243     2.93895
    8          C          -0.021883        4.0219     1.10330     2.91859
    9          C          -0.172480        4.1725     1.09653     3.07595
   10          C           0.075821        3.9242     1.10631     2.81786
   11          N          -0.284927        5.2849     1.56719     3.71773
   12          C           0.061913        3.9381     1.07143     2.86666
   13          C           0.066356        3.9336     1.07177     2.86187
   14          N          -0.289072        5.2891     1.56686     3.72221
   15          C           0.079315        3.9207     1.10686     2.81382
   16          H           0.223416        0.7766     0.77658
   17          H           0.219116        0.7809     0.78088
   18          H           0.215986        0.7840     0.78401
   19          H           0.216135        0.7839     0.78386
   20          H           0.219190        0.7808     0.78081
   21          H           0.222941        0.7771     0.77706
   22          H           0.189118        0.8109     0.81088
   23          H           0.189748        0.8103     0.81025
   24          C          -0.174996        4.1750     1.09631     3.07869
   25          C          -0.017537        4.0175     1.10380     2.91374
   26          C          -0.015714        4.0157     1.07209     2.94363
   27          C          -0.103966        4.1040     1.09326     3.01070
   28          C          -0.105876        4.1059     1.09338     3.01250
   29          C          -0.007862        4.0079     1.07251     2.93535
   30          C          -0.027349        4.0273     1.10258     2.92476
   31          C          -0.167383        4.1674     1.09669     3.07069
   32          C           0.067701        3.9323     1.10512     2.82718
   33          N          -0.280043        5.2800     1.56624     3.71380
   34          C           0.058651        3.9413     1.07060     2.87075
   35          C           0.069933        3.9301     1.07172     2.85835
   36          N          -0.293158        5.2932     1.56602     3.72714
   37          C           0.079327        3.9207     1.10669     2.81398
   38          H           0.223760        0.7762     0.77624
   39          H           0.219245        0.7808     0.78075
   40          H           0.215917        0.7841     0.78408
   41          H           0.216157        0.7838     0.78384
   42          H           0.219112        0.7809     0.78089
   43          H           0.222430        0.7776     0.77757
   44          H           0.188712        0.8113     0.81129
   45          H           0.189831        0.8102     0.81017
   46          C          -0.177668        4.1777     1.09635     3.08132
   47          C          -0.016919        4.0169     1.10390     2.91301
   48          C          -0.013050        4.0130     1.07230     2.94075
   49          C          -0.103963        4.1040     1.09346     3.01050
   50          C          -0.104086        4.1041     1.09361     3.01048
   51          C          -0.008768        4.0088     1.07257     2.93620
   52          C          -0.023209        4.0232     1.10311     2.92010
   53          C          -0.172933        4.1729     1.09659     3.07634
   54          C           0.079976        3.9200     1.10627     2.81375
   55          N          -0.284251        5.2843     1.56677     3.71748
   56          C           0.055554        3.9444     1.07063     2.87382
   57          C           0.062909        3.9371     1.07139     2.86570
   58          N          -0.292796        5.2928     1.56660     3.72620
   59          C           0.087662        3.9123     1.10724     2.80510
   60          H           0.223824        0.7762     0.77618
   61          H           0.219483        0.7805     0.78052
   62          H           0.216389        0.7836     0.78361
   63          H           0.216464        0.7835     0.78354
   64          H           0.219282        0.7807     0.78072
   65          H           0.222998        0.7770     0.77700
   66          H           0.189701        0.8103     0.81030
   67          H           0.190261        0.8097     0.80974
 DIPOLE           X         Y         Z       TOTAL
 POINT-CHG.    -0.020     0.065    -0.079     0.104
 HYBRID         0.016     0.019    -0.007     0.026
 SUM           -0.004     0.084    -0.085     0.120


          ATOMIC ORBITAL ELECTRON POPULATIONS

     Atom    s        px        py        pz      x^2-y^2     xz        z^2       yz        xy
    1 Mn   0.79631   0.16407   0.16428   0.16470   0.56930   1.18093   0.57924   1.24283   1.48295
    2  C   1.09635   1.00266   1.07492   1.00121
    3  C   1.10375   1.09481   0.95988   0.86008
    4  C   1.07226   0.94874   1.01506   0.97891
    5  C   1.09342   1.11156   0.94167   0.95731
    6  C   1.09336   0.94145   1.11230   0.95874
    7  C   1.07243   1.01493   0.94820   0.97582
    8  C   1.10330   0.95897   1.09608   0.86353
    9  C   1.09653   1.07666   1.00021   0.99908
   10  C   1.10631   0.97742   0.92434   0.91611
   11  N   1.56719   1.09820   1.36542   1.25411
   12  C   1.07143   0.84640   0.97675   1.04351
   13  C   1.07177   0.97746   0.84486   1.03955
   14  N   1.56686   1.36447   1.10012   1.25761
   15  C   1.10686   0.92060   0.98003   0.91319
   16  H   0.77658
   17  H   0.78088
   18  H   0.78401
   19  H   0.78386
   20  H   0.78081
   21  H   0.77706
   22  H   0.81088
   23  H   0.81025
   24  C   1.09631   1.00137   1.07524   1.00208
   25  C   1.10380   0.85923   0.95951   1.09500
   26  C   1.07209   0.98015   1.01537   0.94810
   27  C   1.09326   0.95780   0.94130   1.11160
   28  C   1.09338   0.95851   1.11228   0.94171
   29  C   1.07251   0.97324   0.94764   1.01447
   30  C   1.10258   0.86944   1.09610   0.95922
   31  C   1.09669   0.99495   0.99984   1.07590
   32  C   1.10512   0.92577   0.92417   0.97725
   33  N   1.56624   1.24976   1.36511   1.09894
   34  C   1.07060   1.04837   0.97691   0.84548
   35  C   1.07172   1.03780   0.84281   0.97775
   36  N   1.56602   1.26135   1.10191   1.36388
   37  C   1.10669   0.91473   0.97859   0.92066
   38  H   0.77624
   39  H   0.78075
   40  H   0.78408
   41  H   0.78384
   42  H   0.78089
   43  H   0.77757
   44  H   0.81129
   45  H   0.81017
   46  C   1.09635   1.07512   1.00378   1.00241
   47  C   1.10390   0.95983   0.85863   1.09456
   48  C   1.07230   1.01514   0.97738   0.94823
   49  C   1.09346   0.94157   0.95720   1.11173
   50  C   1.09361   1.11222   0.95679   0.94147
   51  C   1.07257   0.94781   0.97347   1.01492
   52  C   1.10311   1.09577   0.86547   0.95886
   53  C   1.09659   0.99984   0.99961   1.07689
   54  C   1.10627   0.92374   0.91285   0.97717
   55  N   1.56677   1.36655   1.25258   1.09835
   56  C   1.07063   0.97787   1.05082   0.84512
   57  C   1.07139   0.84263   1.04386   0.97920
   58  N   1.56660   1.10104   1.26051   1.36464
   59  C   1.10724   0.98044   0.90546   0.91920
   60  H   0.77618
   61  H   0.78052
   62  H   0.78361
   63  H   0.78354
   64  H   0.78072
   65  H   0.77700
   66  H   0.81030
   67  H   0.80974


                    (SZ)    =    1.000000
                    (S**2)  =    2.031314


          ATOMIC ORBITAL SPIN POPULATIONS

    Atom   Total    s     px     py     pz   x^2-y^2  xz     z^2    yz     xy
         Atomic
    1 Mn  1.9943  0.019  0.002  0.001  0.002  0.037  0.754  0.037  0.692  0.450
    2  C -0.0411 -0.002 -0.003 -0.002 -0.035
    3  C  0.0509  0.002  0.002  0.002  0.045
    4  C -0.0306 -0.001 -0.002 -0.002 -0.025
    5  C  0.0154  0.001  0.001  0.001  0.013
    6  C -0.0169 -0.000 -0.001 -0.001 -0.015
    7  C -0.0025 -0.000  0.000 -0.000 -0.002
    8  C  0.0207  0.001  0.001  0.001  0.019
    9  C -0.0144 -0.001 -0.001 -0.001 -0.012
   10  C  0.0292  0.001  0.002  0.001  0.026
   11  N -0.0400 -0.004 -0.003 -0.009 -0.024
   12  C  0.0093  0.001  0.002  0.000  0.006
   13  C  0.0391  0.002  0.002  0.004  0.031
   14  N -0.0688 -0.005 -0.011 -0.005 -0.047
   15  C  0.0580  0.002  0.003  0.003  0.050
   16  H  0.0012  0.001
   17  H -0.0016 -0.002
   18  H -0.0005 -0.001
   19  H  0.0005  0.001
   20  H -0.0006 -0.001
   21  H  0.0003  0.000
   22  H -0.0008 -0.001
   23  H -0.0017 -0.002
   24  C -0.0488 -0.002 -0.041 -0.002 -0.003
   25  C  0.0595  0.002  0.052  0.003  0.002
   26  C -0.0420 -0.002 -0.035 -0.002 -0.003
   27  C  0.0316  0.001  0.027  0.002  0.001
   28  C -0.0328 -0.001 -0.029 -0.001 -0.001
   29  C  0.0163  0.001  0.014  0.001  0.001
   30  C -0.0062 -0.000 -0.005 -0.000 -0.001
   31  C  0.0079  0.000  0.007 -0.000  0.000
   32  C -0.0001  0.000 -0.001 -0.000  0.001
   33  N -0.0142 -0.003 -0.002 -0.008 -0.002
   34  C -0.0103  0.001 -0.012 -0.001  0.002
   35  C  0.0535  0.003  0.042  0.006  0.003
   36  N -0.0791 -0.006 -0.054 -0.006 -0.013
   37  C  0.0648  0.002  0.056  0.004  0.003
   38  H  0.0014  0.001
   39  H -0.0018 -0.002
   40  H -0.0010 -0.001
   41  H  0.0010  0.001
   42  H  0.0002  0.000
   43  H -0.0004 -0.000
   44  H -0.0000 -0.000
   45  H -0.0019 -0.002
   46  C -0.0421 -0.002 -0.002 -0.036 -0.003
   47  C  0.0514  0.001  0.002  0.046  0.002
   48  C -0.0288 -0.001 -0.002 -0.024 -0.002
   49  C  0.0159  0.001  0.001  0.013  0.001
   50  C -0.0163 -0.000 -0.001 -0.015 -0.001
   51  C  0.0011  0.000 -0.000  0.001  0.000
   52  C  0.0164  0.000  0.001  0.015  0.001
   53  C -0.0125 -0.001 -0.001 -0.010 -0.001
   54  C  0.0281  0.001  0.001  0.023  0.002
   55  N -0.0371 -0.004 -0.010 -0.020 -0.003
   56  C  0.0026  0.001 -0.000  0.000  0.002
   57  C  0.0370  0.002  0.004  0.029  0.002
   58  N -0.0730 -0.006 -0.006 -0.048 -0.013
   59  C  0.0633  0.002  0.004  0.054  0.003
   60  H  0.0012  0.001
   61  H -0.0015 -0.001
   62  H -0.0005 -0.000
   63  H  0.0005  0.000
   64  H -0.0005 -0.000
   65  H  0.0003  0.000
   66  H -0.0008 -0.001
   67  H -0.0018 -0.002

 **********************
 *                    *
 * JOB ENDED NORMALLY *
 *                    *
 **********************



 TOTAL JOB TIME:            19.95 SECONDS

 == MOPAC DONE ==
