[Molden Format]
[Title]
Written by TeraChem
[Atoms] Angs
Mn   1   15     -0.00653    0.07056   -0.07595
O   2   8     -0.35200    2.14974    0.00524
H   3   1      0.49900    2.62320    0.04320
H   4   1     -0.83857    2.42592    0.80305
O   5   8      2.04097    0.51042   -0.05093
H   6   1      2.58178    0.32859   -0.83780
H   7   1      2.51897    0.12336    0.71231
O   8   8      0.38597   -2.01454    0.01040
H   9   1      0.99509   -2.24247    0.74611
H   10   1     -0.42706   -2.52942    0.16378
O   11   8     -2.03324   -0.37380    0.02310
H   12   1     -2.47264   -0.24271    0.89665
H   13   1     -2.64662   -0.04824   -0.65665
N   14   7      0.02080    0.06590    2.01105
C   15   6      1.05373   -0.63988    2.44796
C   16   6     -1.14932    0.18544    2.62877
N   17   7     -2.27122    0.37120    2.91596
N   18   7      2.05789   -1.24416    2.53261
C   19   6     -0.00070    0.02152   -4.94819
C   20   6     -0.48598    1.12919   -4.25232
C   21   6     -0.46196    1.11875   -2.86268
N   22   7      0.00998    0.07345   -2.14491
C   23   6      0.47800   -0.99738   -2.82766
C   24   6      0.49026   -1.05926   -4.21674
H   25   1     -0.00471    0.00380   -6.03382
H   26   1     -0.87847    1.99660   -4.77243
H   27   1     -0.82255    1.96546   -2.29043
H   28   1      0.83929   -1.82263   -2.22617
H   29   1      0.87840   -1.94577   -4.70674
[GTO]
    1 0
 s    3 1.00
            5.914000            -0.376451
            1.605000             0.772479
            0.626000             0.476935
 s    4 1.00
            5.914000             0.211997
            1.605000            -0.519947
            0.626000            -0.585768
            0.111500             1.100396
 s    1 1.00
            0.038000             1.000000
 p    3 1.00
           18.200000            -0.044790
            2.141000             0.626031
            0.700900             0.469633
 p    1 1.00
            0.069000             1.000000
 p    1 1.00
            0.021000             1.000000
 d    4 1.00
           32.270000             0.034158
            8.875000             0.176110
            2.890000             0.439430
            0.876100             0.594327
 d    1 1.00
            0.212000             1.000000

    2 0
 s    6 1.00
         5484.671700             0.001831
          825.234950             0.013950
          188.046960             0.068445
           52.964500             0.232714
           16.897570             0.470193
            5.799635             0.358521
 s    3 1.00
           15.539616            -0.110778
            3.599934            -0.148026
            1.013762             1.130767
 s    1 1.00
            0.270006             1.000000
 p    3 1.00
           15.539616             0.070874
            3.599934             0.339753
            1.013762             0.727159
 p    1 1.00
            0.270006             1.000000
 d    1 1.00
            0.800000             1.000000

    3 0
 s    3 1.00
           18.731137             0.033495
            2.825394             0.234727
            0.640122             0.813757
 s    1 1.00
            0.161278             1.000000

    4 0
 s    3 1.00
           18.731137             0.033495
            2.825394             0.234727
            0.640122             0.813757
 s    1 1.00
            0.161278             1.000000

    5 0
 s    6 1.00
         5484.671700             0.001831
          825.234950             0.013950
          188.046960             0.068445
           52.964500             0.232714
           16.897570             0.470193
            5.799635             0.358521
 s    3 1.00
           15.539616            -0.110778
            3.599934            -0.148026
            1.013762             1.130767
 s    1 1.00
            0.270006             1.000000
 p    3 1.00
           15.539616             0.070874
            3.599934             0.339753
            1.013762             0.727159
 p    1 1.00
            0.270006             1.000000
 d    1 1.00
            0.800000             1.000000

    6 0
 s    3 1.00
           18.731137             0.033495
            2.825394             0.234727
            0.640122             0.813757
 s    1 1.00
            0.161278             1.000000

    7 0
 s    3 1.00
           18.731137             0.033495
            2.825394             0.234727
            0.640122             0.813757
 s    1 1.00
            0.161278             1.000000

    8 0
 s    6 1.00
         5484.671700             0.001831
          825.234950             0.013950
          188.046960             0.068445
           52.964500             0.232714
           16.897570             0.470193
            5.799635             0.358521
 s    3 1.00
           15.539616            -0.110778
            3.599934            -0.148026
            1.013762             1.130767
 s    1 1.00
            0.270006             1.000000
 p    3 1.00
           15.539616             0.070874
            3.599934             0.339753
            1.013762             0.727159
 p    1 1.00
            0.270006             1.000000
 d    1 1.00
            0.800000             1.000000

    9 0
 s    3 1.00
           18.731137             0.033495
            2.825394             0.234727
            0.640122             0.813757
 s    1 1.00
            0.161278             1.000000

   10 0
 s    3 1.00
           18.731137             0.033495
            2.825394             0.234727
            0.640122             0.813757
 s    1 1.00
            0.161278             1.000000

   11 0
 s    6 1.00
         5484.671700             0.001831
          825.234950             0.013950
          188.046960             0.068445
           52.964500             0.232714
           16.897570             0.470193
            5.799635             0.358521
 s    3 1.00
           15.539616            -0.110778
            3.599934            -0.148026
            1.013762             1.130767
 s    1 1.00
            0.270006             1.000000
 p    3 1.00
           15.539616             0.070874
            3.599934             0.339753
            1.013762             0.727159
 p    1 1.00
            0.270006             1.000000
 d    1 1.00
            0.800000             1.000000

   12 0
 s    3 1.00
           18.731137             0.033495
            2.825394             0.234727
            0.640122             0.813757
 s    1 1.00
            0.161278             1.000000

   13 0
 s    3 1.00
           18.731137             0.033495
            2.825394             0.234727
            0.640122             0.813757
 s    1 1.00
            0.161278             1.000000

   14 0
 s    6 1.00
         4173.511000             0.001835
          627.457900             0.013995
          142.902100             0.068587
           40.234330             0.232241
           12.820210             0.469070
            4.390437             0.360455
 s    3 1.00
           11.626358            -0.114961
            2.716280            -0.169118
            0.772218             1.145852
 s    1 1.00
            0.212031             1.000000
 p    3 1.00
           11.626358             0.067580
            2.716280             0.323907
            0.772218             0.740895
 p    1 1.00
            0.212031             1.000000
 d    1 1.00
            0.800000             1.000000

   15 0
 s    6 1.00
         3047.524900             0.001835
          457.369510             0.014037
          103.948690             0.068843
           29.210155             0.232184
            9.286663             0.467941
            3.163927             0.362312
 s    3 1.00
            7.868272            -0.119332
            1.881288            -0.160854
            0.544249             1.143456
 s    1 1.00
            0.168714             1.000000
 p    3 1.00
            7.868272             0.068999
            1.881288             0.316424
            0.544249             0.744308
 p    1 1.00
            0.168714             1.000000
 d    1 1.00
            0.800000             1.000000

   16 0
 s    6 1.00
         3047.524900             0.001835
          457.369510             0.014037
          103.948690             0.068843
           29.210155             0.232184
            9.286663             0.467941
            3.163927             0.362312
 s    3 1.00
            7.868272            -0.119332
            1.881288            -0.160854
            0.544249             1.143456
 s    1 1.00
            0.168714             1.000000
 p    3 1.00
            7.868272             0.068999
            1.881288             0.316424
            0.544249             0.744308
 p    1 1.00
            0.168714             1.000000
 d    1 1.00
            0.800000             1.000000

   17 0
 s    6 1.00
         4173.511000             0.001835
          627.457900             0.013995
          142.902100             0.068587
           40.234330             0.232241
           12.820210             0.469070
            4.390437             0.360455
 s    3 1.00
           11.626358            -0.114961
            2.716280            -0.169118
            0.772218             1.145852
 s    1 1.00
            0.212031             1.000000
 p    3 1.00
           11.626358             0.067580
            2.716280             0.323907
            0.772218             0.740895
 p    1 1.00
            0.212031             1.000000
 d    1 1.00
            0.800000             1.000000

   18 0
 s    6 1.00
         4173.511000             0.001835
          627.457900             0.013995
          142.902100             0.068587
           40.234330             0.232241
           12.820210             0.469070
            4.390437             0.360455
 s    3 1.00
           11.626358            -0.114961
            2.716280            -0.169118
            0.772218             1.145852
 s    1 1.00
            0.212031             1.000000
 p    3 1.00
           11.626358             0.067580
            2.716280             0.323907
            0.772218             0.740895
 p    1 1.00
            0.212031             1.000000
 d    1 1.00
            0.800000             1.000000

   19 0
 s    6 1.00
         3047.524900             0.001835
          457.369510             0.014037
          103.948690             0.068843
           29.210155             0.232184
            9.286663             0.467941
            3.163927             0.362312
 s    3 1.00
            7.868272            -0.119332
            1.881288            -0.160854
            0.544249             1.143456
 s    1 1.00
            0.168714             1.000000
 p    3 1.00
            7.868272             0.068999
            1.881288             0.316424
            0.544249             0.744308
 p    1 1.00
            0.168714             1.000000
 d    1 1.00
            0.800000             1.000000

   20 0
 s    6 1.00
         3047.524900             0.001835
          457.369510             0.014037
          103.948690             0.068843
           29.210155             0.232184
            9.286663             0.467941
            3.163927             0.362312
 s    3 1.00
            7.868272            -0.119332
            1.881288            -0.160854
            0.544249             1.143456
 s    1 1.00
            0.168714             1.000000
 p    3 1.00
            7.868272             0.068999
            1.881288             0.316424
            0.544249             0.744308
 p    1 1.00
            0.168714             1.000000
 d    1 1.00
            0.800000             1.000000

   21 0
 s    6 1.00
         3047.524900             0.001835
          457.369510             0.014037
          103.948690             0.068843
           29.210155             0.232184
            9.286663             0.467941
            3.163927             0.362312
 s    3 1.00
            7.868272            -0.119332
            1.881288            -0.160854
            0.544249             1.143456
 s    1 1.00
            0.168714             1.000000
 p    3 1.00
            7.868272             0.068999
            1.881288             0.316424
            0.544249             0.744308
 p    1 1.00
            0.168714             1.000000
 d    1 1.00
            0.800000             1.000000

   22 0
 s    6 1.00
         4173.511000             0.001835
          627.457900             0.013995
          142.902100             0.068587
           40.234330             0.232241
           12.820210             0.469070
            4.390437             0.360455
 s    3 1.00
           11.626358            -0.114961
            2.716280            -0.169118
            0.772218             1.145852
 s    1 1.00
            0.212031             1.000000
 p    3 1.00
           11.626358             0.067580
            2.716280             0.323907
            0.772218             0.740895
 p    1 1.00
            0.212031             1.000000
 d    1 1.00
            0.800000             1.000000

   23 0
 s    6 1.00
         3047.524900             0.001835
          457.369510             0.014037
          103.948690             0.068843
           29.210155             0.232184
            9.286663             0.467941
            3.163927             0.362312
 s    3 1.00
            7.868272            -0.119332
            1.881288            -0.160854
            0.544249             1.143456
 s    1 1.00
            0.168714             1.000000
 p    3 1.00
            7.868272             0.068999
            1.881288             0.316424
            0.544249             0.744308
 p    1 1.00
            0.168714             1.000000
 d    1 1.00
            0.800000             1.000000

   24 0
 s    6 1.00
         3047.524900             0.001835
          457.369510             0.014037
          103.948690             0.068843
           29.210155             0.232184
            9.286663             0.467941
            3.163927             0.362312
 s    3 1.00
            7.868272            -0.119332
            1.881288            -0.160854
            0.544249             1.143456
 s    1 1.00
            0.168714             1.000000
 p    3 1.00
            7.868272             0.068999
            1.881288             0.316424
            0.544249             0.744308
 p    1 1.00
            0.168714             1.000000
 d    1 1.00
            0.800000             1.000000

   25 0
 s    3 1.00
           18.731137             0.033495
            2.825394             0.234727
            0.640122             0.813757
 s    1 1.00
            0.161278             1.000000

   26 0
 s    3 1.00
           18.731137             0.033495
            2.825394             0.234727
            0.640122             0.813757
 s    1 1.00
            0.161278             1.000000

   27 0
 s    3 1.00
           18.731137             0.033495
            2.825394             0.234727
            0.640122             0.813757
 s    1 1.00
            0.161278             1.000000

   28 0
 s    3 1.00
           18.731137             0.033495
            2.825394             0.234727
            0.640122             0.813757
 s    1 1.00
            0.161278             1.000000

   29 0
 s    3 1.00
           18.731137             0.033495
            2.825394             0.234727
            0.640122             0.813757
 s    1 1.00
            0.161278             1.000000

[MO]
 Ene=   -19.3600
 Spin= Alpha
 Occup= 1.0
    1    0.00014
    2    0.00028
    3   -0.00007
    4    0.00000
    5    0.00011
    6   -0.00000
    7   -0.00087
    8    0.00182
    9   -0.00027
   10    0.00002
   11   -0.00031
   12   -0.00003
   13    0.00006
   14    0.00015
   15    0.00008
   16   -0.00002
   17    0.00001
   18    0.00001
   19    0.00030
   20    0.00073
   21    0.00029
   22   -0.00007
   23   -0.00004
   24   -0.00004
   25   -0.99267
   26   -0.02566
   27   -0.01289
   28   -0.00035
   29   -0.00060
   30   -0.00079
   31    0.00003
   32    0.00085
   33    0.00034
   34    0.00841
   35    0.00822
   36    0.00835
   37    0.00003
   38   -0.00003
   39   -0.00001
   40   -0.00035
   41    0.00086
   42   -0.00039
   43    0.00086
   44    0.00029
   45    0.00002
   46   -0.00004
   47    0.00002
   48    0.00004
   49   -0.00000
   50    0.00005
   51   -0.00020
   52    0.00004
   53   -0.00005
   54   -0.00000
   55   -0.00002
   56    0.00002
   57   -0.00000
   58   -0.00000
   59   -0.00000
   60    0.00010
   61   -0.00003
   62    0.00012
   63    0.00008
   64   -0.00001
   65    0.00015
   66   -0.00003
   67   -0.00001
   68   -0.00000
   69    0.00015
   70    0.00000
   71   -0.00001
   72    0.00001
   73   -0.00009
   74    0.00001
   75    0.00002
   76    0.00001
   77    0.00001
   78   -0.00005
   79    0.00023
   80    0.00003
   81    0.00024
   82    0.00012
   83    0.00010
   84   -0.00036
   85    0.00003
   86    0.00003
   87   -0.00001
   88   -0.00022
   89   -0.00023
   90    0.00002
   91    0.00001
   92    0.00003
   93    0.00005
   94   -0.00004
   95   -0.00000
   96    0.00001
   97    0.00000
   98   -0.00001
   99    0.00007
  100   -0.00028
  101    0.00000
  102    0.00005
  103   -0.00023
  104    0.00001
  105   -0.00001
  106    0.00001
  107   -0.00006
  108    0.00001
  109    0.00008
  110   -0.00002
  111   -0.00001
  112   -0.00004
  113    0.00001
  114   -0.00002
  115    0.00003
  116   -0.00001
  117   -0.00004
  118    0.00048
  119   -0.00002
  120    0.00003
  121    0.00000
  122    0.00012
  123   -0.00013
  124   -0.00016
  125    0.00001
  126    0.00000
  127    0.00000
  128   -0.00003
  129    0.00002
  130   -0.00000
  131    0.00001
  132    0.00004
  133   -0.00048
  134   -0.00002
  135    0.00004
  136   -0.00001
  137    0.00037
  138   -0.00025
  139    0.00001
  140    0.00000
  141    0.00002
  142    0.00000
  143    0.00001
  144    0.00001
  145    0.00003
  146   -0.00000
  147   -0.00003
  148    0.00048
  149    0.00000
  150    0.00001
  151   -0.00002
  152    0.00017
  153    0.00000
  154   -0.00001
  155    0.00000
  156   -0.00000
  157   -0.00001
  158    0.00001
  159    0.00000
  160    0.00001
  161    0.00000
  162    0.00000
  163   -0.00022
  164    0.00001
  165   -0.00001
  166    0.00001
  167    0.00009
  168   -0.00001
  169   -0.00001
  170   -0.00001
  171   -0.00000
  172    0.00001
  173   -0.00000
  174   -0.00000
  175    0.00000
  176    0.00001
  177    0.00004
  178   -0.00017
  179    0.00000
  180   -0.00001
  181    0.00002
  182   -0.00006
  183    0.00017
  184   -0.00041
  185    0.00001
  186    0.00001
  187    0.00000
  188    0.00001
  189   -0.00000
  190    0.00000
  191   -0.00002
  192   -0.00009
  193    0.00113
  194    0.00001
  195   -0.00001
  196    0.00001
  197   -0.00008
  198    0.00009
  199    0.00073
  200   -0.00004
  201   -0.00002
  202    0.00003
  203   -0.00001
  204   -0.00001
  205    0.00001
  206    0.00003
  207    0.00017
  208   -0.00145
  209   -0.00005
  210    0.00003
  211   -0.00002
  212    0.00038
  213   -0.00060
  214    0.00066
  215    0.00006
  216    0.00007
  217   -0.00002
  218   -0.00001
  219    0.00002
  220   -0.00003
  221    0.00004
  222    0.00019
  223   -0.00139
  224   -0.00000
  225   -0.00001
  226    0.00002
  227    0.00002
  228   -0.00009
  229   -0.00016
  230    0.00009
  231    0.00004
  232    0.00005
  233    0.00003
  234    0.00002
  235   -0.00003
  236   -0.00000
  237   -0.00002
  238   -0.00009
  239   -0.00001
  240    0.00001
  241   -0.00002
  242   -0.00009
  243    0.00025
  244    0.00059
  245   -0.00001
  246    0.00002
  247   -0.00002
  248   -0.00002
  249   -0.00001
  250    0.00002
  251   -0.00000
  252   -0.00003
  253    0.00079
  254   -0.00001
  255    0.00001
  256    0.00001
  257   -0.00003
  258    0.00006
  259    0.00019
  260   -0.00000
  261    0.00000
  262    0.00001
  263   -0.00001
  264    0.00000
  265   -0.00001
  266   -0.00004
  267   -0.00013
  268   -0.00003
  269    0.00001
  270   -0.00007
  271    0.00078
  272   -0.00006
  273    0.00022
  274   -0.00001
  275   -0.00004
 Ene=   -19.3553
 Spin= Alpha
 Occup= 1.0
    1   -0.00024
    2   -0.00034
    3   -0.00070
    4   -0.00011
    5   -0.00000
    6   -0.00001
    7   -0.00193
    8   -0.00090
    9    0.00031
   10    0.00032
   11    0.00006
   12   -0.00003
   13   -0.00008
   14    0.00000
   15   -0.00001
   16   -0.00001
   17    0.00000
   18    0.00001
   19   -0.00062
   20   -0.00016
   21   -0.00024
   22   -0.00020
   23    0.00000
   24   -0.00004
   25    0.00028
   26   -0.00008
   27    0.00038
   28   -0.00001
   29   -0.00001
   30    0.00001
   31    0.00017
   32   -0.00012
   33   -0.00006
   34   -0.00003
   35   -0.00001
   36   -0.00001
   37   -0.00004
   38   -0.00001
   39    0.00000
   40    0.00001
   41    0.00012
   42   -0.00003
   43    0.00017
   44    0.99266
   45    0.02564
   46    0.01307
   47    0.00084
   48   -0.00054
   49   -0.00008
   50   -0.00095
   51   -0.00001
   52    0.00007
   53   -0.00825
   54   -0.00838
   55   -0.00843
   56    0.00003
   57    0.00001
   58    0.00001
   59    0.00035
   60   -0.00067
   61    0.00037
   62   -0.00093
   63   -0.00017
   64   -0.00004
   65    0.00011
   66   -0.00002
   67    0.00000
   68   -0.00000
   69    0.00012
   70    0.00005
   71   -0.00001
   72   -0.00002
   73    0.00003
   74   -0.00001
   75    0.00002
   76    0.00001
   77   -0.00000
   78   -0.00004
   79    0.00015
   80    0.00006
   81   -0.00025
   82   -0.00031
   83    0.00006
   84   -0.00040
   85    0.00000
   86   -0.00002
   87   -0.00001
   88    0.00007
   89    0.00009
   90    0.00003
   91    0.00015
   92    0.00003
   93    0.00004
   94    0.00003
   95   -0.00001
   96    0.00000
   97    0.00000
   98   -0.00010
   99    0.00003
  100   -0.00010
  101   -0.00003
  102   -0.00013
  103    0.00096
  104    0.00001
  105   -0.00003
  106   -0.00001
  107   -0.00034
  108    0.00028
  109   -0.00007
  110   -0.00002
  111   -0.00006
  112   -0.00002
  113    0.00001
  114   -0.00006
  115   -0.00000
  116    0.00001
  117   -0.00003
  118   -0.00016
  119    0.00000
  120    0.00001
  121   -0.00008
  122   -0.00031
  123    0.00016
  124    0.00012
  125    0.00005
  126    0.00005
  127    0.00005
  128   -0.00001
  129    0.00001
  130   -0.00002
  131    0.00002
  132    0.00007
  133   -0.00060
  134   -0.00003
  135   -0.00002
  136   -0.00000
  137   -0.00056
  138    0.00009
  139    0.00049
  140   -0.00002
  141    0.00005
  142    0.00001
  143   -0.00001
  144    0.00003
  145    0.00000
  146    0.00000
  147    0.00002
  148   -0.00033
  149    0.00002
  150   -0.00000
  151   -0.00000
  152   -0.00013
  153    0.00002
  154   -0.00006
  155   -0.00000
  156    0.00001
  157    0.00001
  158   -0.00000
  159   -0.00001
  160    0.00000
  161   -0.00003
  162   -0.00010
  163    0.00069
  164   -0.00000
  165   -0.00002
  166    0.00002
  167   -0.00007
  168    0.00018
  169   -0.00020
  170   -0.00008
  171   -0.00005
  172   -0.00003
  173    0.00001
  174    0.00001
  175   -0.00004
  176   -0.00000
  177   -0.00002
  178    0.00048
  179    0.00000
  180   -0.00000
  181    0.00001
  182    0.00005
  183    0.00004
  184    0.00022
  185   -0.00000
  186    0.00000
  187   -0.00000
  188   -0.00000
  189    0.00000
  190    0.00000
  191    0.00000
  192    0.00002
  193   -0.00033
  194    0.00002
  195    0.00001
  196    0.00000
  197   -0.00024
  198    0.00022
  199   -0.00006
  200   -0.00000
  201    0.00000
  202    0.00001
  203    0.00001
  204   -0.00001
  205   -0.00000
  206   -0.00002
  207   -0.00005
  208    0.00053
  209   -0.00006
  210   -0.00002
  211   -0.00002
  212    0.00036
  213   -0.00031
  214   -0.00001
  215   -0.00004
  216   -0.00001
  217   -0.00005
  218   -0.00001
  219    0.00000
  220    0.00001
  221    0.00001
  222    0.00002
  223   -0.00065
  224   -0.00000
  225   -0.00002
  226   -0.00002
  227    0.00004
  228    0.00021
  229    0.00064
  230    0.00004
  231    0.00002
  232    0.00005
  233    0.00002
  234    0.00005
  235   -0.00000
  236   -0.00001
  237   -0.00006
  238    0.00076
  239   -0.00006
  240   -0.00000
  241    0.00000
  242   -0.00004
  243    0.00058
  244    0.00001
  245   -0.00002
  246    0.00001
  247   -0.00001
  248   -0.00002
  249    0.00001
  250    0.00002
  251    0.00001
  252    0.00003
  253   -0.00038
  254    0.00001
  255    0.00001
  256   -0.00000
  257    0.00003
  258   -0.00036
  259   -0.00011
  260    0.00001
  261   -0.00000
  262   -0.00000
  263   -0.00000
  264   -0.00001
  265   -0.00001
  266    0.00000
  267    0.00004
  268   -0.00002
  269   -0.00008
  270   -0.00003
  271    0.00027
  272   -0.00004
  273    0.00029
  274   -0.00002
  275   -0.00011
 Ene=   -19.3496
 Spin= Alpha
 Occup= 1.0
    1    0.00023
    2    0.00032
    3    0.00061
    4   -0.00013
    5   -0.00001
    6    0.00001
    7   -0.00190
    8   -0.00085
    9   -0.00022
   10    0.00031
   11    0.00006
   12    0.00003
   13    0.00010
   14    0.00001
   15    0.00001
   16    0.00001
   17   -0.00000
   18    0.00000
   19    0.00060
   20    0.00021
   21    0.00027
   22    0.00017
   23   -0.00006
   24   -0.00002
   25   -0.00010
   26    0.00003
   27   -0.00011
   28   -0.00001
   29    0.00000
   30   -0.00001
   31    0.00010
   32    0.00007
   33    0.00004
   34    0.00002
   35   -0.00003
   36    0.00001
   37   -0.00002
   38    0.00001
   39   -0.00000
   40   -0.00006
   41    0.00028
   42    0.00005
   43   -0.00018
   44   -0.00035
   45   -0.00008
   46    0.00041
   47    0.00000
   48   -0.00002
   49   -0.00000
   50    0.00004
   51    0.00009
   52    0.00002
   53   -0.00014
   54   -0.00004
   55   -0.00003
   56   -0.00003
   57   -0.00001
   58    0.00000
   59   -0.00002
   60    0.00013
   61   -0.00000
   62    0.00009
   63    0.00261
   64    0.00015
   65   -0.00032
   66   -0.00001
   67   -0.00000
   68   -0.00001
   69    0.00017
   70   -0.00014
   71    0.00005
   72    0.00001
   73   -0.00002
   74   -0.00001
   75    0.00004
   76   -0.00001
   77    0.00000
   78    0.00002
   79   -0.00013
   80   -0.00000
   81   -0.00015
   82   -0.99265
   83   -0.02562
   84   -0.01319
   85    0.00083
   86   -0.00046
   87   -0.00007
   88   -0.00088
   89   -0.00001
   90   -0.00009
   91    0.00828
   92    0.00839
   93    0.00844
   94   -0.00004
   95    0.00002
   96   -0.00001
   97   -0.00037
   98    0.00111
   99   -0.00035
  100    0.00066
  101    0.00002
  102    0.00011
  103   -0.00072
  104   -0.00001
  105   -0.00003
  106    0.00001
  107    0.00030
  108    0.00016
  109    0.00008
  110    0.00000
  111    0.00002
  112   -0.00000
  113    0.00002
  114   -0.00003
  115   -0.00001
  116    0.00000
  117   -0.00002
  118    0.00002
  119   -0.00006
  120   -0.00001
  121   -0.00000
  122    0.00011
  123    0.00007
  124   -0.00007
  125    0.00004
  126   -0.00000
  127    0.00002
  128   -0.00000
  129    0.00001
  130   -0.00001
  131   -0.00001
  132    0.00000
  133    0.00018
  134    0.00003
  135   -0.00000
  136    0.00004
  137    0.00034
  138   -0.00009
  139   -0.00034
  140   -0.00002
  141   -0.00005
  142   -0.00003
  143   -0.00001
  144    0.00001
  145   -0.00000
  146    0.00001
  147    0.00005
  148   -0.00003
  149   -0.00001
  150   -0.00001
  151   -0.00002
  152    0.00013
  153    0.00005
  154    0.00026
  155    0.00006
  156    0.00003
  157   -0.00002
  158   -0.00000
  159    0.00001
  160   -0.00002
  161   -0.00000
  162   -0.00001
  163    0.00000
  164    0.00002
  165   -0.00000
  166    0.00002
  167   -0.00007
  168   -0.00002
  169   -0.00005
  170    0.00000
  171   -0.00002
  172   -0.00000
  173    0.00000
  174    0.00000
  175   -0.00000
  176    0.00000
  177    0.00002
  178   -0.00042
  179    0.00000
  180   -0.00000
  181   -0.00000
  182    0.00006
  183    0.00001
  184   -0.00020
  185    0.00000
  186   -0.00000
  187    0.00000
  188    0.00000
  189    0.00000
  190    0.00000
  191   -0.00000
  192   -0.00003
  193    0.00034
  194    0.00001
  195    0.00001
  196    0.00000
  197    0.00002
  198   -0.00034
  199    0.00010
  200   -0.00001
  201    0.00000
  202    0.00000
  203    0.00000
  204   -0.00001
  205   -0.00001
  206    0.00001
  207    0.00005
  208   -0.00072
  209   -0.00006
  210   -0.00000
  211   -0.00000
  212   -0.00003
  213    0.00056
  214   -0.00004
  215    0.00002
  216   -0.00001
  217    0.00001
  218    0.00002
  219    0.00000
  220    0.00002
  221   -0.00001
  222   -0.00001
  223    0.00056
  224   -0.00000
  225   -0.00002
  226    0.00003
  227    0.00002
  228    0.00025
  229   -0.00061
  230   -0.00003
  231   -0.00001
  232   -0.00005
  233   -0.00002
  234    0.00005
  235   -0.00000
  236    0.00001
  237    0.00004
  238   -0.00046
  239   -0.00005
  240   -0.00002
  241    0.00002
  242    0.00031
  243   -0.00022
  244    0.00005
  245    0.00004
  246    0.00001
  247    0.00005
  248    0.00001
  249    0.00000
  250    0.00001
  251   -0.00000
  252   -0.00002
  253    0.00031
  254    0.00002
  255    0.00001
  256   -0.00000
  257   -0.00021
  258    0.00017
  259    0.00007
  260    0.00000
  261   -0.00000
  262   -0.00001
  263   -0.00001
  264   -0.00001
  265   -0.00000
  266   -0.00000
  267   -0.00004
  268    0.00001
  269    0.00010
  270    0.00004
  271   -0.00026
  272    0.00003
  273   -0.00021
  274    0.00001
  275    0.00006
 Ene=   -19.3491
 Spin= Alpha
 Occup= 1.0
    1   -0.00017
    2   -0.00031
    3   -0.00009
    4   -0.00001
    5    0.00011
    6    0.00000
    7   -0.00073
    8    0.00172