[Molden Format]
[Title]
Written by TeraChem
[Atoms] Angs
Mn   1   15     -0.05986    0.07768    0.34741
O   2   8      0.03731    1.96713    0.05658
C   3   6      1.07484    2.64532   -0.26949
C   4   6      0.78812    4.04066   -0.76542
C   5   6      2.38886    2.17267   -0.17471
C   6   6      2.69631    0.90732    0.33885
O   7   8      1.81919    0.05204    0.71269
C   8   6      4.12889    0.46202    0.49493
H   9   1      0.15823    3.96995   -1.65907
H   10   1      1.70062    4.58934   -1.00959
H   11   1      0.22090    4.59629   -0.01069
H   12   1      4.83432    1.28629    0.36521
H   13   1      4.34090   -0.30920   -0.25570
H   14   1      4.27201    0.00525    1.47919
H   15   1      3.20039    2.82857   -0.46306
O   16   8     -0.13889   -1.80885    0.70684
C   17   6     -1.04808   -2.64178    0.36546
C   18   6     -0.67542   -4.09465    0.52884
C   19   6     -2.31108   -2.27384   -0.11516
C   20   6     -2.70786   -0.93610   -0.20903
O   21   8     -1.95033    0.05915    0.07222
C   22   6     -4.10608   -0.56663   -0.63771
H   23   1      0.10797   -4.34223   -0.19772
H   24   1     -1.52774   -4.76077    0.37520
H   25   1     -0.25486   -4.25969    1.52598
H   26   1     -4.73203   -1.44510   -0.81075
H   27   1     -4.04972    0.02549   -1.55813
H   28   1     -4.57144    0.06561    0.12627
H   29   1     -3.02161   -3.05032   -0.36871
Cl   30   17      0.30672   -0.30187   -1.88935
C   31   6     -0.37880    0.42584    2.32134
O   32   8     -0.55288    0.62333    3.42692
[GTO]
    1 0
 s    3 1.00
            5.914000            -0.376451
            1.605000             0.772479
            0.626000             0.476935
 s    4 1.00
            5.914000             0.211997
            1.605000            -0.519947
            0.626000            -0.585768
            0.111500             1.100396
 s    1 1.00
            0.038000             1.000000
 p    3 1.00
           18.200000            -0.044790
            2.141000             0.626031
            0.700900             0.469633
 p    1 1.00
            0.069000             1.000000
 p    1 1.00
            0.021000             1.000000
 d    4 1.00
           32.270000             0.034158
            8.875000             0.176110
            2.890000             0.439430
            0.876100             0.594327
 d    1 1.00
            0.212000             1.000000

    2 0
 s    6 1.00
         5484.671700             0.001831
          825.234950             0.013950
          188.046960             0.068445
           52.964500             0.232714
           16.897570             0.470193
            5.799635             0.358521
 s    3 1.00
           15.539616            -0.110778
            3.599934            -0.148026
            1.013762             1.130767
 s    1 1.00
            0.270006             1.000000
 p    3 1.00
           15.539616             0.070874
            3.599934             0.339753
            1.013762             0.727159
 p    1 1.00
            0.270006             1.000000
 d    1 1.00
            0.800000             1.000000

    3 0
 s    6 1.00
         3047.524900             0.001835
          457.369510             0.014037
          103.948690             0.068843
           29.210155             0.232184
            9.286663             0.467941
            3.163927             0.362312
 s    3 1.00
            7.868272            -0.119332
            1.881288            -0.160854
            0.544249             1.143456
 s    1 1.00
            0.168714             1.000000
 p    3 1.00
            7.868272             0.068999
            1.881288             0.316424
            0.544249             0.744308
 p    1 1.00
            0.168714             1.000000
 d    1 1.00
            0.800000             1.000000

    4 0
 s    6 1.00
         3047.524900             0.001835
          457.369510             0.014037
          103.948690             0.068843
           29.210155             0.232184
            9.286663             0.467941
            3.163927             0.362312
 s    3 1.00
            7.868272            -0.119332
            1.881288            -0.160854
            0.544249             1.143456
 s    1 1.00
            0.168714             1.000000
 p    3 1.00
            7.868272             0.068999
            1.881288             0.316424
            0.544249             0.744308
 p    1 1.00
            0.168714             1.000000
 d    1 1.00
            0.800000             1.000000

    5 0
 s    6 1.00
         3047.524900             0.001835
          457.369510             0.014037
          103.948690             0.068843
           29.210155             0.232184
            9.286663             0.467941
            3.163927             0.362312
 s    3 1.00
            7.868272            -0.119332
            1.881288            -0.160854
            0.544249             1.143456
 s    1 1.00
            0.168714             1.000000
 p    3 1.00
            7.868272             0.068999
            1.881288             0.316424
            0.544249             0.744308
 p    1 1.00
            0.168714             1.000000
 d    1 1.00
            0.800000             1.000000

    6 0
 s    6 1.00
         3047.524900             0.001835
          457.369510             0.014037
          103.948690             0.068843
           29.210155             0.232184
            9.286663             0.467941
            3.163927             0.362312
 s    3 1.00
            7.868272            -0.119332
            1.881288            -0.160854
            0.544249             1.143456
 s    1 1.00
            0.168714             1.000000
 p    3 1.00
            7.868272             0.068999
            1.881288             0.316424
            0.544249             0.744308
 p    1 1.00
            0.168714             1.000000
 d    1 1.00
            0.800000             1.000000

    7 0
 s    6 1.00
         5484.671700             0.001831
          825.234950             0.013950
          188.046960             0.068445
           52.964500             0.232714
           16.897570             0.470193
            5.799635             0.358521
 s    3 1.00
           15.539616            -0.110778
            3.599934            -0.148026
            1.013762             1.130767
 s    1 1.00
            0.270006             1.000000
 p    3 1.00
           15.539616             0.070874
            3.599934             0.339753
            1.013762             0.727159
 p    1 1.00
            0.270006             1.000000
 d    1 1.00
            0.800000             1.000000

    8 0
 s    6 1.00
         3047.524900             0.001835
          457.369510             0.014037
          103.948690             0.068843
           29.210155             0.232184
            9.286663             0.467941
            3.163927             0.362312
 s    3 1.00
            7.868272            -0.119332
            1.881288            -0.160854
            0.544249             1.143456
 s    1 1.00
            0.168714             1.000000
 p    3 1.00
            7.868272             0.068999
            1.881288             0.316424
            0.544249             0.744308
 p    1 1.00
            0.168714             1.000000
 d    1 1.00
            0.800000             1.000000

    9 0
 s    3 1.00
           18.731137             0.033495
            2.825394             0.234727
            0.640122             0.813757
 s    1 1.00
            0.161278             1.000000

   10 0
 s    3 1.00
           18.731137             0.033495
            2.825394             0.234727
            0.640122             0.813757
 s    1 1.00
            0.161278             1.000000

   11 0
 s    3 1.00
           18.731137             0.033495
            2.825394             0.234727
            0.640122             0.813757
 s    1 1.00
            0.161278             1.000000

   12 0
 s    3 1.00
           18.731137             0.033495
            2.825394             0.234727
            0.640122             0.813757
 s    1 1.00
            0.161278             1.000000

   13 0
 s    3 1.00
           18.731137             0.033495
            2.825394             0.234727
            0.640122             0.813757
 s    1 1.00
            0.161278             1.000000

   14 0
 s    3 1.00
           18.731137             0.033495
            2.825394             0.234727
            0.640122             0.813757
 s    1 1.00
            0.161278             1.000000

   15 0
 s    3 1.00
           18.731137             0.033495
            2.825394             0.234727
            0.640122             0.813757
 s    1 1.00
            0.161278             1.000000

   16 0
 s    6 1.00
         5484.671700             0.001831
          825.234950             0.013950
          188.046960             0.068445
           52.964500             0.232714
           16.897570             0.470193
            5.799635             0.358521
 s    3 1.00
           15.539616            -0.110778
            3.599934            -0.148026
            1.013762             1.130767
 s    1 1.00
            0.270006             1.000000
 p    3 1.00
           15.539616             0.070874
            3.599934             0.339753
            1.013762             0.727159
 p    1 1.00
            0.270006             1.000000
 d    1 1.00
            0.800000             1.000000

   17 0
 s    6 1.00
         3047.524900             0.001835
          457.369510             0.014037
          103.948690             0.068843
           29.210155             0.232184
            9.286663             0.467941
            3.163927             0.362312
 s    3 1.00
            7.868272            -0.119332
            1.881288            -0.160854
            0.544249             1.143456
 s    1 1.00
            0.168714             1.000000
 p    3 1.00
            7.868272             0.068999
            1.881288             0.316424
            0.544249             0.744308
 p    1 1.00
            0.168714             1.000000
 d    1 1.00
            0.800000             1.000000

   18 0
 s    6 1.00
         3047.524900             0.001835
          457.369510             0.014037
          103.948690             0.068843
           29.210155             0.232184
            9.286663             0.467941
            3.163927             0.362312
 s    3 1.00
            7.868272            -0.119332
            1.881288            -0.160854
            0.544249             1.143456
 s    1 1.00
            0.168714             1.000000
 p    3 1.00
            7.868272             0.068999
            1.881288             0.316424
            0.544249             0.744308
 p    1 1.00
            0.168714             1.000000
 d    1 1.00
            0.800000             1.000000

   19 0
 s    6 1.00
         3047.524900             0.001835
          457.369510             0.014037
          103.948690             0.068843
           29.210155             0.232184
            9.286663             0.467941
            3.163927             0.362312
 s    3 1.00
            7.868272            -0.119332
            1.881288            -0.160854
            0.544249             1.143456
 s    1 1.00
            0.168714             1.000000
 p    3 1.00
            7.868272             0.068999
            1.881288             0.316424
            0.544249             0.744308
 p    1 1.00
            0.168714             1.000000
 d    1 1.00
            0.800000             1.000000

   20 0
 s    6 1.00
         3047.524900             0.001835
          457.369510             0.014037
          103.948690             0.068843
           29.210155             0.232184
            9.286663             0.467941
            3.163927             0.362312
 s    3 1.00
            7.868272            -0.119332
            1.881288            -0.160854
            0.544249             1.143456
 s    1 1.00
            0.168714             1.000000
 p    3 1.00
            7.868272             0.068999
            1.881288             0.316424
            0.544249             0.744308
 p    1 1.00
            0.168714             1.000000
 d    1 1.00
            0.800000             1.000000

   21 0
 s    6 1.00
         5484.671700             0.001831
          825.234950             0.013950
          188.046960             0.068445
           52.964500             0.232714
           16.897570             0.470193
            5.799635             0.358521
 s    3 1.00
           15.539616            -0.110778
            3.599934            -0.148026
            1.013762             1.130767
 s    1 1.00
            0.270006             1.000000
 p    3 1.00
           15.539616             0.070874
            3.599934             0.339753
            1.013762             0.727159
 p    1 1.00
            0.270006             1.000000
 d    1 1.00
            0.800000             1.000000

   22 0
 s    6 1.00
         3047.524900             0.001835
          457.369510             0.014037
          103.948690             0.068843
           29.210155             0.232184
            9.286663             0.467941
            3.163927             0.362312
 s    3 1.00
            7.868272            -0.119332
            1.881288            -0.160854
            0.544249             1.143456
 s    1 1.00
            0.168714             1.000000
 p    3 1.00
            7.868272             0.068999
            1.881288             0.316424
            0.544249             0.744308
 p    1 1.00
            0.168714             1.000000
 d    1 1.00
            0.800000             1.000000

   23 0
 s    3 1.00
           18.731137             0.033495
            2.825394             0.234727
            0.640122             0.813757
 s    1 1.00
            0.161278             1.000000

   24 0
 s    3 1.00
           18.731137             0.033495
            2.825394             0.234727
            0.640122             0.813757
 s    1 1.00
            0.161278             1.000000

   25 0
 s    3 1.00
           18.731137             0.033495
            2.825394             0.234727
            0.640122             0.813757
 s    1 1.00
            0.161278             1.000000

   26 0
 s    3 1.00
           18.731137             0.033495
            2.825394             0.234727
            0.640122             0.813757
 s    1 1.00
            0.161278             1.000000

   27 0
 s    3 1.00
           18.731137             0.033495
            2.825394             0.234727
            0.640122             0.813757
 s    1 1.00
            0.161278             1.000000

   28 0
 s    3 1.00
           18.731137             0.033495
            2.825394             0.234727
            0.640122             0.813757
 s    1 1.00
            0.161278             1.000000

   29 0
 s    3 1.00
           18.731137             0.033495
            2.825394             0.234727
            0.640122             0.813757
 s    1 1.00
            0.161278             1.000000

   30 0
 s    6 1.00
        25180.100000             0.001833
         3780.350000             0.014034
          860.474000             0.069097
          242.145000             0.237452
           77.334900             0.483034
           26.247000             0.339856
 s    6 1.00
          491.765000            -0.002297
          116.984000            -0.030714
           37.415300            -0.112528
           13.783400             0.045016
            5.452150             0.589354
            2.225880             0.465206
 s    3 1.00
            3.186490            -0.251831
            1.144270             0.061589
            0.420377             1.060185
 s    1 1.00
            0.142657             1.000000
 p    6 1.00
          491.765000             0.003989
          116.984000             0.030318
           37.415300             0.129880
           13.783400             0.327951
            5.452150             0.453527
            2.225880             0.252154
 p    3 1.00
            3.186490            -0.014299
            1.144270             0.323572
            0.420377             0.743508
 p    1 1.00
            0.142657             1.000000
 d    1 1.00
            0.750000             1.000000

   31 0
 s    6 1.00
         3047.524900             0.001835
          457.369510             0.014037
          103.948690             0.068843
           29.210155             0.232184
            9.286663             0.467941
            3.163927             0.362312
 s    3 1.00
            7.868272            -0.119332
            1.881288            -0.160854
            0.544249             1.143456
 s    1 1.00
            0.168714             1.000000
 p    3 1.00
            7.868272             0.068999
            1.881288             0.316424
            0.544249             0.744308
 p    1 1.00
            0.168714             1.000000
 d    1 1.00
            0.800000             1.000000

   32 0
 s    6 1.00
         5484.671700             0.001831
          825.234950             0.013950
          188.046960             0.068445
           52.964500             0.232714
           16.897570             0.470193
            5.799635             0.358521
 s    3 1.00
           15.539616            -0.110778
            3.599934            -0.148026
            1.013762             1.130767
 s    1 1.00
            0.270006             1.000000
 p    3 1.00
           15.539616             0.070874
            3.599934             0.339753
            1.013762             0.727159
 p    1 1.00
            0.270006             1.000000
 d    1 1.00
            0.800000             1.000000

[MO]
 Ene=  -101.4506
 Spin= Alpha
 Occup= 1.0
    1    0.00007
    2    0.00014
    3   -0.00018
    4   -0.00000
    5    0.00000
    6    0.00001
    7    0.00001
    8   -0.00001
    9   -0.00006
   10   -0.00001
   11    0.00001
   12    0.00009
   13    0.00001
   14    0.00001
   15    0.00004
   16   -0.00000
   17   -0.00000
   18    0.00000
   19    0.00012
   20    0.00012
   21    0.00012
   22    0.00002
   23   -0.00000
   24    0.00000
   25    0.00001
   26    0.00005
   27   -0.00021
   28    0.00000
   29   -0.00001
   30   -0.00000
   31   -0.00005
   32    0.00010
   33    0.00002
   34    0.00002
   35    0.00001
   36    0.00003
   37    0.00000
   38    0.00000
   39   -0.00001
   40    0.00000
   41    0.00001
   42    0.00008
   43    0.00000
   44   -0.00000
   45   -0.00001
   46    0.00006
   47   -0.00013
   48    0.00007
   49    0.00001
   50    0.00001
   51    0.00001
   52   -0.00000
   53    0.00000
   54   -0.00000
   55   -0.00000
   56   -0.00001
   57    0.00009
   58    0.00000
   59   -0.00000
   60    0.00000
   61   -0.00000
   62   -0.00005
   63    0.00000
   64   -0.00000
   65   -0.00000
   66   -0.00000
   67    0.00000
   68    0.00000
   69    0.00000
   70    0.00001
   71    0.00002
   72   -0.00023
   73   -0.00001
   74   -0.00001
   75   -0.00000
   76    0.00014
   77    0.00011
   78   -0.00005
   79    0.00001
   80    0.00001
   81    0.00001
   82    0.00000
   83   -0.00000
   84    0.00000
   85    0.00000
   86    0.00001
   87    0.00009
   88   -0.00000
   89   -0.00000
   90   -0.00001
   91   -0.00013
   92    0.00008
   93   -0.00001
   94    0.00001
   95    0.00001
   96    0.00001
   97   -0.00000
   98   -0.00000
   99    0.00000
  100    0.00001
  101    0.00005
  102   -0.00021
  103   -0.00001
  104    0.00000
  105   -0.00001
  106    0.00008
  107   -0.00004
  108    0.00007
  109    0.00002
  110    0.00003
  111    0.00002
  112   -0.00000
  113   -0.00002
  114    0.00000
  115   -0.00000
  116   -0.00000
  117    0.00009
  118   -0.00000
  119    0.00000
  120    0.00000
  121   -0.00004
  122   -0.00000
  123   -0.00001
  124   -0.00000
  125   -0.00000
  126   -0.00000
  127    0.00000
  128    0.00000
  129    0.00000
  130   -0.00001
  131    0.00001
  132   -0.00000
  133    0.00001
  134   -0.00000
  135    0.00000
  136   -0.00000
  137    0.00001
  138   -0.00001
  139    0.00001
  140   -0.00000
  141    0.00000
  142   -0.00001
  143   -0.00005
  144    0.00001
  145    0.00005
  146   -0.00020
  147   -0.00000
  148    0.00001
  149   -0.00001
  150    0.00003
  151   -0.00008
  152    0.00007
  153    0.00003
  154    0.00002
  155    0.00002
  156   -0.00000
  157   -0.00000
  158    0.00002
  159    0.00000
  160    0.00000
  161    0.00007
  162    0.00000
  163    0.00000
  164   -0.00001
  165   -0.00007
  166    0.00012
  167   -0.00001
  168    0.00001
  169    0.00001
  170    0.00001
  171   -0.00000
  172   -0.00000
  173   -0.00000
  174   -0.00000
  175   -0.00000
  176    0.00008
  177   -0.00000
  178    0.00000
  179    0.00000
  180    0.00000
  181    0.00004
  182   -0.00001
  183   -0.00000
  184   -0.00000
  185   -0.00000
  186    0.00000
  187   -0.00000
  188   -0.00000
  189    0.00000
  190    0.00002
  191   -0.00020
  192    0.00001
  193    0.00001
  194   -0.00000
  195   -0.00010
  196   -0.00012
  197   -0.00004
  198    0.00001
  199    0.00000
  200    0.00001
  201    0.00000
  202   -0.00000
  203    0.00000
  204    0.00000
  205    0.00000
  206    0.00007
  207    0.00001
  208   -0.00000
  209   -0.00001
  210    0.00011
  211   -0.00006
  212    0.00005
  213    0.00001
  214    0.00000
  215    0.00001
  216   -0.00000
  217    0.00000
  218   -0.00000
  219    0.00001
  220    0.00005
  221   -0.00019
  222    0.00001
  223   -0.00000
  224   -0.00000
  225   -0.00010
  226    0.00004
  227    0.00002
  228    0.00001
  229    0.00002
  230    0.00003
  231    0.00000
  232    0.00001
  233   -0.00000
  234   -0.00000
  235   -0.00000
  236    0.00008
  237    0.00000
  238   -0.00000
  239    0.00000
  240    0.00004
  241   -0.00000
  242   -0.00000
  243   -0.00000
  244   -0.00000
  245   -0.00000
  246    0.00000
  247   -0.00000
  248   -0.00000
  249   -0.00001
  250    0.00001
  251   -0.00000
  252    0.00001
  253   -0.00000
  254    0.00000
  255   -0.00000
  256    0.00001
  257   -0.00001
  258    0.00001
  259    0.00000
  260    0.00000
  261   -0.00001
  262   -0.00005
  263    0.99600
  264    0.01516
  265   -0.02103
  266    0.00163
  267   -0.00000
  268    0.00001
  269    0.00003
  270    0.00001
  271   -0.00001
  272   -0.00005
  273    0.00000
  274   -0.00000
  275   -0.00001
  276    0.00754
  277    0.00754
  278    0.00752
  279    0.00000
  280    0.00000
  281   -0.00001
  282   -0.00000
  283    0.00001
  284    0.00004
  285    0.00000
  286   -0.00000
  287   -0.00000
  288   -0.00002
  289    0.00002
  290    0.00012
  291   -0.00000
  292   -0.00000
  293   -0.00002
  294   -0.00000
  295    0.00000
  296   -0.00000
  297    0.00001
  298    0.00003
  299   -0.00016
  300    0.00000
  301   -0.00000
  302   -0.00000
  303   -0.00000
  304    0.00000
  305    0.00002
  306    0.00002
  307    0.00002
  308    0.00002
  309   -0.00000
  310   -0.00000
  311    0.00000
 Ene=   -19.2838
 Spin= Alpha
 Occup= 1.0
    1    0.00014
    2   -0.00012
    3    0.00014
    4    0.00003
    5   -0.00003
    6   -0.00016
    7   -0.00009
    8    0.00012
    9    0.00065
   10    0.00003
   11   -0.00004
   12   -0.00023
   13   -0.00022
   14   -0.00021
   15   -0.00030
   16    0.00001
   17    0.00001
   18   -0.00002
   19   -0.00032
   20   -0.00035
   21   -0.00010
   22   -0.00004
   23   -0.00003
   24    0.00005
   25   -0.00000
   26    0.00000
   27    0.00003
   28   -0.00000
   29   -0.00001
   30    0.00003
   31    0.00001
   32   -0.00002
   33   -0.00016
   34    0.00001
   35    0.00003
   36   -0.00002
   37    0.00000
   38   -0.00000
   39    0.00003
   40   -0.00000
   41   -0.00001
   42    0.00005
   43    0.00001
   44    0.00002
   45   -0.00001
   46    0.00011
   47   -0.00017
   48    0.00010
   49   -0.00000
   50   -0.00001
   51   -0.00000
   52   -0.00001
   53   -0.00000
   54    0.00000
   55   -0.00000
   56   -0.00001
   57    0.00016
   58   -0.00000
   59   -0.00001
   60    0.00000
   61   -0.00000
   62   -0.00006
   63    0.00000
   64   -0.00000
   65    0.00000
   66   -0.00000
   67    0.00000
   68   -0.00000
   69   -0.00000
   70    0.00000
   71    0.00002
   72   -0.00030
   73   -0.00000
   74   -0.00000
   75    0.00000
   76    0.00014
   77    0.00011
   78   -0.00009
   79    0.00000
   80    0.00001
   81    0.00001
   82   -0.00000
   83    0.00001
   84    0.00001
   85   -0.00000
   86   -0.00001
   87    0.00006
   88    0.00002
   89    0.00001
   90   -0.00001
   91   -0.00018
   92    0.00014
   93   -0.00001
   94   -0.00001
   95   -0.00001
   96   -0.00000
   97   -0.00001
   98    0.00000
   99   -0.00000
  100    0.00000
  101    0.00001
  102    0.00001
  103   -0.00002
  104    0.00001
  105    0.00002
  106    0.00005
  107   -0.00004
  108   -0.00015
  109    0.00001
  110    0.00001
  111    0.00001
  112    0.00002
  113    0.00004
  114   -0.00001
  115   -0.00000
  116   -0.00001
  117    0.00015
  118   -0.00001
  119   -0.00000
  120   -0.00000
  121   -0.00005
  122    0.00001
  123   -0.00002
  124    0.00000
  125   -0.00000
  126   -0.00000
  127    0.00000
  128    0.00000
  129   -0.00000
  130    0.00000
  131   -0.00004
  132   -0.00000
  133   -0.00001
  134   -0.00001
  135    0.00001
  136   -0.00000
  137   -0.00001
  138    0.00000
  139   -0.00004
  140   -0.00001
  141    0.00001
  142   -0.00000
  143   -0.00007
  144    0.00000
  145    0.00000
  146    0.00002
  147   -0.00001
  148    0.00002
  149    0.00002
  150    0.00004
  151   -0.00003
  152   -0.00015
  153    0.00001
  154    0.00001
  155    0.00001
  156    0.00001
  157    0.00001
  158   -0.00004
  159   -0.00000
  160   -0.00001
  161    0.00006
  162   -0.00001
  163   -0.00002
  164   -0.00001
  165   -0.00011
  166    0.00018
  167    0.00000
  168   -0.00001
  169   -0.00001
  170   -0.00000
  171   -0.00001
  172    0.00000
  173    0.00000
  174   -0.00000
  175   -0.00001
  176    0.00014
  177    0.00000
  178    0.00001
  179   -0.00000
  180   -0.00000
  181    0.00005
  182   -0.00002
  183   -0.00000
  184    0.00000
  185   -0.00000
  186    0.00000
  187    0.00000
  188   -0.00000
  189    0.00000
  190    0.00002
  191   -0.00028
  192    0.00000
  193    0.00000
  194    0.00000
  195   -0.00011
  196   -0.00013
  197   -0.00008
  198    0.00001
  199    0.00000
  200    0.00001
  201   -0.00000
  202   -0.00001
  203   -0.00001
  204   -0.00000
  205   -0.00001
  206    0.00006
  207   -0.00002
  208   -0.00001
  209   -0.00001
  210    0.00016
  211   -0.00011
  212    0.00010
  213   -0.00001
  214   -0.00000
  215   -0.00000
  216   -0.00001
  217    0.00000
  218    0.00000
  219    0.00000
  220    0.00001
  221    0.00000
  222    0.00001
  223    0.00000
  224    0.00003
  225    0.00001
  226   -0.00001
  227   -0.00016
  228    0.00003
  229    0.00002
  230   -0.00002
  231   -0.00000
  232   -0.00003
  233    0.00000
  234   -0.00000
  235   -0.00001
  236    0.00015
  237    0.00001
  238    0.00000
  239    0.00000
  240    0.00006
  241   -0.00001
  242   -0.00000
  243    0.00000
  244   -0.00000
  245   -0.00000
  246   -0.00000
  247   -0.00000
  248    0.00000
  249    0.00000
  250   -0.00004
  251   -0.00000
  252   -0.00001
  253   -0.00001
  254    0.00001
  255   -0.00000
  256   -0.00001
  257    0.00000
  258   -0.00004
  259   -0.00001
  260    0.00001
  261   -0.00000
  262   -0.00007
  263   -0.00000
  264   -0.00003
  265   -0.00005
  266    0.00046
  267   -0.00000
  268    0.00000
  269    0.00001
  270    0.00001
  271   -0.00001
  272   -0.00007
  273   -0.00005
  274    0.00005
  275    0.00033
  276   -0.00006
  277   -0.00006
  278   -0.00002
  279   -0.00000
  280   -0.00001
  281    0.00001
  282    0.00001
  283    0.00023
  284   -0.00468
  285    0.00007
  286   -0.00008
  287   -0.00045
  288    0.00052
  289   -0.00059
  290   -0.00328
  291    0.00000
  292   -0.00001
  293   -0.00125
  294    0.00004
  295    0.00023
  296   -0.00027
  297    0.99270
  298    0.02564
  299    0.01563
  300    0.00022
  301   -0.00025
  302   -0.00139
  303    0.00034
  304   -0.00039
  305   -0.00217
  306   -0.00835
  307   -0.00834
  308   -0.00745
  309   -0.00003
  310   -0.00017
  311    0.00019
 Ene=   -19.1656
 Spin= Alpha
 Occup= 1.0
    1    0.00012
    2    0.00010
    3    0.00083
    4    0.00015
    5   -0.00001
    6    0.00001
    7    0.00246
    8    0.00029
    9    0.00048
   10   -0.00035
   11    0.00002
   12   -0.00009
   13    0.00008
   14    0.00006
   15    0.00006
   16    0.00002
   17   -0.00000
   18    0.00000
   19    0.00081
   20    0.00039
   21    0.00018
   22   -0.00008
   23    0.00020
   24   -0.00004
   25    0.00001
   26   -0.00009
   27    0.00070
   28   -0.00001
   29   -0.00003
   30    0.00003
   31    0.00023
   32    0.00049
   33   -0.00025
   34   -0.00001
   35   -0.00009
   36   -0.00009
   37    0.00002
   38   -0.00001
   39   -0.00000
   40    0.00001
   41    0.00005
   42    0.00020
   43    0.00005
   44   -0.00001
   45    0.00002
   46    0.00125
   47    0.00044
   48   -0.00030
   49   -0.00001
   50   -0.00002
   51    0.00003
   52   -0.00003
   53    0.00001
   54    0.00002
   55   -0.00000
   56   -0.00001
   57   -0.00010
   58   -0.00002
   59    0.00001
   60   -0.00000
   61   -0.00023
   62   -0.00002
   63    0.00005
   64   -0.00002
   65    0.00000
   66   -0.00000
   67    0.00003
   68   -0.00001
   69   -0.00001
   70    0.00002
   71   -0.00001
   72   -0.00027
   73   -0.00006
   74   -0.00000
   75   -0.00000
   76    0.00138
   77   -0.00075
   78    0.00029