[Molden Format]
[Title]
Written by TeraChem
[Atoms] Angs
Mn   1   15      0.11707    0.71554   13.65987
N   2   7      0.18912    0.01033   16.77375
H   3   1     -0.03982    0.97816   16.54570
H   4   1     -0.39294   -0.56127   16.16065
H   5   1      1.14402   -0.12850   16.44251
C   6   6     -0.39080    3.74423   13.46106
C   7   6     -0.18334    2.63862   14.50668
H   8   1     -1.25898    3.52680   12.82264
H   9   1      0.48211    3.83029   12.79775
H   10   1     -0.55852    4.74808   13.89219
H   11   1     -1.07162    2.60133   15.16256
H   12   1      0.67698    2.90887   15.14222
C   13   6      3.08377    1.17204   14.54748
C   14   6      2.16223    1.16020   13.32006
H   15   1      3.13790    0.18027   15.02099
H   16   1      2.72040    1.87456   15.31149
H   17   1      4.12712    1.46346   14.32596
H   18   1      2.55596    0.44987   12.57394
H   19   1      2.19167    2.15709   12.84707
C   20   6      1.60929   -2.11414   13.90996
C   21   6      0.38126   -1.38433   13.35261
H   22   1      1.64141   -2.07992   15.01025
H   23   1      2.54270   -1.65708   13.55688
H   24   1      1.65479   -3.18469   13.63696
H   25   1     -0.53539   -1.89257   13.69724
H   26   1      0.37459   -1.48814   12.25347
C   27   6     -2.38950   -0.19166   12.00738
C   28   6     -1.97141    0.53418   13.29440
H   29   1     -1.98527   -1.21134   11.96749
H   30   1     -2.01365    0.33084   11.11350
H   31   1     -3.48428   -0.27775   11.87743
H   32   1     -2.39285   -0.00231   14.16435
H   33   1     -2.42572    1.53723   13.31026
C   34   6     -1.47756   -2.87035  -66.63764
C   35   6     -2.25046   -2.06443  -65.77221
C   36   6     -1.76877   -4.24639  -66.77013
C   37   6     -0.41343   -2.30023  -67.37144
N   38   7      0.46968   -1.82742  -67.98071
N   39   7     -2.00996   -5.38841  -66.88084
N   40   7     -2.89179   -1.39552  -65.05399
[GTO]
    1 0
 s    3 1.00
            5.914000            -0.376451
            1.605000             0.772479
            0.626000             0.476935
 s    4 1.00
            5.914000             0.211997
            1.605000            -0.519947
            0.626000            -0.585768
            0.111500             1.100396
 s    1 1.00
            0.038000             1.000000
 p    3 1.00
           18.200000            -0.044790
            2.141000             0.626031
            0.700900             0.469633
 p    1 1.00
            0.069000             1.000000
 p    1 1.00
            0.021000             1.000000
 d    4 1.00
           32.270000             0.034158
            8.875000             0.176110
            2.890000             0.439430
            0.876100             0.594327
 d    1 1.00
            0.212000             1.000000

    2 0
 s    6 1.00
         4173.511000             0.001835
          627.457900             0.013995
          142.902100             0.068587
           40.234330             0.232241
           12.820210             0.469070
            4.390437             0.360455
 s    3 1.00
           11.626358            -0.114961
            2.716280            -0.169118
            0.772218             1.145852
 s    1 1.00
            0.212031             1.000000
 p    3 1.00
           11.626358             0.067580
            2.716280             0.323907
            0.772218             0.740895
 p    1 1.00
            0.212031             1.000000
 d    1 1.00
            0.800000             1.000000

    3 0
 s    3 1.00
           18.731137             0.033495
            2.825394             0.234727
            0.640122             0.813757
 s    1 1.00
            0.161278             1.000000

    4 0
 s    3 1.00
           18.731137             0.033495
            2.825394             0.234727
            0.640122             0.813757
 s    1 1.00
            0.161278             1.000000

    5 0
 s    3 1.00
           18.731137             0.033495
            2.825394             0.234727
            0.640122             0.813757
 s    1 1.00
            0.161278             1.000000

    6 0
 s    6 1.00
         3047.524900             0.001835
          457.369510             0.014037
          103.948690             0.068843
           29.210155             0.232184
            9.286663             0.467941
            3.163927             0.362312
 s    3 1.00
            7.868272            -0.119332
            1.881288            -0.160854
            0.544249             1.143456
 s    1 1.00
            0.168714             1.000000
 p    3 1.00
            7.868272             0.068999
            1.881288             0.316424
            0.544249             0.744308
 p    1 1.00
            0.168714             1.000000
 d    1 1.00
            0.800000             1.000000

    7 0
 s    6 1.00
         3047.524900             0.001835
          457.369510             0.014037
          103.948690             0.068843
           29.210155             0.232184
            9.286663             0.467941
            3.163927             0.362312
 s    3 1.00
            7.868272            -0.119332
            1.881288            -0.160854
            0.544249             1.143456
 s    1 1.00
            0.168714             1.000000
 p    3 1.00
            7.868272             0.068999
            1.881288             0.316424
            0.544249             0.744308
 p    1 1.00
            0.168714             1.000000
 d    1 1.00
            0.800000             1.000000

    8 0
 s    3 1.00
           18.731137             0.033495
            2.825394             0.234727
            0.640122             0.813757
 s    1 1.00
            0.161278             1.000000

    9 0
 s    3 1.00
           18.731137             0.033495
            2.825394             0.234727
            0.640122             0.813757
 s    1 1.00
            0.161278             1.000000

   10 0
 s    3 1.00
           18.731137             0.033495
            2.825394             0.234727
            0.640122             0.813757
 s    1 1.00
            0.161278             1.000000

   11 0
 s    3 1.00
           18.731137             0.033495
            2.825394             0.234727
            0.640122             0.813757
 s    1 1.00
            0.161278             1.000000

   12 0
 s    3 1.00
           18.731137             0.033495
            2.825394             0.234727
            0.640122             0.813757
 s    1 1.00
            0.161278             1.000000

   13 0
 s    6 1.00
         3047.524900             0.001835
          457.369510             0.014037
          103.948690             0.068843
           29.210155             0.232184
            9.286663             0.467941
            3.163927             0.362312
 s    3 1.00
            7.868272            -0.119332
            1.881288            -0.160854
            0.544249             1.143456
 s    1 1.00
            0.168714             1.000000
 p    3 1.00
            7.868272             0.068999
            1.881288             0.316424
            0.544249             0.744308
 p    1 1.00
            0.168714             1.000000
 d    1 1.00
            0.800000             1.000000

   14 0
 s    6 1.00
         3047.524900             0.001835
          457.369510             0.014037
          103.948690             0.068843
           29.210155             0.232184
            9.286663             0.467941
            3.163927             0.362312
 s    3 1.00
            7.868272            -0.119332
            1.881288            -0.160854
            0.544249             1.143456
 s    1 1.00
            0.168714             1.000000
 p    3 1.00
            7.868272             0.068999
            1.881288             0.316424
            0.544249             0.744308
 p    1 1.00
            0.168714             1.000000
 d    1 1.00
            0.800000             1.000000

   15 0
 s    3 1.00
           18.731137             0.033495
            2.825394             0.234727
            0.640122             0.813757
 s    1 1.00
            0.161278             1.000000

   16 0
 s    3 1.00
           18.731137             0.033495
            2.825394             0.234727
            0.640122             0.813757
 s    1 1.00
            0.161278             1.000000

   17 0
 s    3 1.00
           18.731137             0.033495
            2.825394             0.234727
            0.640122             0.813757
 s    1 1.00
            0.161278             1.000000

   18 0
 s    3 1.00
           18.731137             0.033495
            2.825394             0.234727
            0.640122             0.813757
 s    1 1.00
            0.161278             1.000000

   19 0
 s    3 1.00
           18.731137             0.033495
            2.825394             0.234727
            0.640122             0.813757
 s    1 1.00
            0.161278             1.000000

   20 0
 s    6 1.00
         3047.524900             0.001835
          457.369510             0.014037
          103.948690             0.068843
           29.210155             0.232184
            9.286663             0.467941
            3.163927             0.362312
 s    3 1.00
            7.868272            -0.119332
            1.881288            -0.160854
            0.544249             1.143456
 s    1 1.00
            0.168714             1.000000
 p    3 1.00
            7.868272             0.068999
            1.881288             0.316424
            0.544249             0.744308
 p    1 1.00
            0.168714             1.000000
 d    1 1.00
            0.800000             1.000000

   21 0
 s    6 1.00
         3047.524900             0.001835
          457.369510             0.014037
          103.948690             0.068843
           29.210155             0.232184
            9.286663             0.467941
            3.163927             0.362312
 s    3 1.00
            7.868272            -0.119332
            1.881288            -0.160854
            0.544249             1.143456
 s    1 1.00
            0.168714             1.000000
 p    3 1.00
            7.868272             0.068999
            1.881288             0.316424
            0.544249             0.744308
 p    1 1.00
            0.168714             1.000000
 d    1 1.00
            0.800000             1.000000

   22 0
 s    3 1.00
           18.731137             0.033495
            2.825394             0.234727
            0.640122             0.813757
 s    1 1.00
            0.161278             1.000000

   23 0
 s    3 1.00
           18.731137             0.033495
            2.825394             0.234727
            0.640122             0.813757
 s    1 1.00
            0.161278             1.000000

   24 0
 s    3 1.00
           18.731137             0.033495
            2.825394             0.234727
            0.640122             0.813757
 s    1 1.00
            0.161278             1.000000

   25 0
 s    3 1.00
           18.731137             0.033495
            2.825394             0.234727
            0.640122             0.813757
 s    1 1.00
            0.161278             1.000000

   26 0
 s    3 1.00
           18.731137             0.033495
            2.825394             0.234727
            0.640122             0.813757
 s    1 1.00
            0.161278             1.000000

   27 0
 s    6 1.00
         3047.524900             0.001835
          457.369510             0.014037
          103.948690             0.068843
           29.210155             0.232184
            9.286663             0.467941
            3.163927             0.362312
 s    3 1.00
            7.868272            -0.119332
            1.881288            -0.160854
            0.544249             1.143456
 s    1 1.00
            0.168714             1.000000
 p    3 1.00
            7.868272             0.068999
            1.881288             0.316424
            0.544249             0.744308
 p    1 1.00
            0.168714             1.000000
 d    1 1.00
            0.800000             1.000000

   28 0
 s    6 1.00
         3047.524900             0.001835
          457.369510             0.014037
          103.948690             0.068843
           29.210155             0.232184
            9.286663             0.467941
            3.163927             0.362312
 s    3 1.00
            7.868272            -0.119332
            1.881288            -0.160854
            0.544249             1.143456
 s    1 1.00
            0.168714             1.000000
 p    3 1.00
            7.868272             0.068999
            1.881288             0.316424
            0.544249             0.744308
 p    1 1.00
            0.168714             1.000000
 d    1 1.00
            0.800000             1.000000

   29 0
 s    3 1.00
           18.731137             0.033495
            2.825394             0.234727
            0.640122             0.813757
 s    1 1.00
            0.161278             1.000000

   30 0
 s    3 1.00
           18.731137             0.033495
            2.825394             0.234727
            0.640122             0.813757
 s    1 1.00
            0.161278             1.000000

   31 0
 s    3 1.00
           18.731137             0.033495
            2.825394             0.234727
            0.640122             0.813757
 s    1 1.00
            0.161278             1.000000

   32 0
 s    3 1.00
           18.731137             0.033495
            2.825394             0.234727
            0.640122             0.813757
 s    1 1.00
            0.161278             1.000000

   33 0
 s    3 1.00
           18.731137             0.033495
            2.825394             0.234727
            0.640122             0.813757
 s    1 1.00
            0.161278             1.000000

   34 0
 s    6 1.00
         3047.524900             0.001835
          457.369510             0.014037
          103.948690             0.068843
           29.210155             0.232184
            9.286663             0.467941
            3.163927             0.362312
 s    3 1.00
            7.868272            -0.119332
            1.881288            -0.160854
            0.544249             1.143456
 s    1 1.00
            0.168714             1.000000
 p    3 1.00
            7.868272             0.068999
            1.881288             0.316424
            0.544249             0.744308
 p    1 1.00
            0.168714             1.000000
 d    1 1.00
            0.800000             1.000000

   35 0
 s    6 1.00
         3047.524900             0.001835
          457.369510             0.014037
          103.948690             0.068843
           29.210155             0.232184
            9.286663             0.467941
            3.163927             0.362312
 s    3 1.00
            7.868272            -0.119332
            1.881288            -0.160854
            0.544249             1.143456
 s    1 1.00
            0.168714             1.000000
 p    3 1.00
            7.868272             0.068999
            1.881288             0.316424
            0.544249             0.744308
 p    1 1.00
            0.168714             1.000000
 d    1 1.00
            0.800000             1.000000

   36 0
 s    6 1.00
         3047.524900             0.001835
          457.369510             0.014037
          103.948690             0.068843
           29.210155             0.232184
            9.286663             0.467941
            3.163927             0.362312
 s    3 1.00
            7.868272            -0.119332
            1.881288            -0.160854
            0.544249             1.143456
 s    1 1.00
            0.168714             1.000000
 p    3 1.00
            7.868272             0.068999
            1.881288             0.316424
            0.544249             0.744308
 p    1 1.00
            0.168714             1.000000
 d    1 1.00
            0.800000             1.000000

   37 0
 s    6 1.00
         3047.524900             0.001835
          457.369510             0.014037
          103.948690             0.068843
           29.210155             0.232184
            9.286663             0.467941
            3.163927             0.362312
 s    3 1.00
            7.868272            -0.119332
            1.881288            -0.160854
            0.544249             1.143456
 s    1 1.00
            0.168714             1.000000
 p    3 1.00
            7.868272             0.068999
            1.881288             0.316424
            0.544249             0.744308
 p    1 1.00
            0.168714             1.000000
 d    1 1.00
            0.800000             1.000000

   38 0
 s    6 1.00
         4173.511000             0.001835
          627.457900             0.013995
          142.902100             0.068587
           40.234330             0.232241
           12.820210             0.469070
            4.390437             0.360455
 s    3 1.00
           11.626358            -0.114961
            2.716280            -0.169118
            0.772218             1.145852
 s    1 1.00
            0.212031             1.000000
 p    3 1.00
           11.626358             0.067580
            2.716280             0.323907
            0.772218             0.740895
 p    1 1.00
            0.212031             1.000000
 d    1 1.00
            0.800000             1.000000

   39 0
 s    6 1.00
         4173.511000             0.001835
          627.457900             0.013995
          142.902100             0.068587
           40.234330             0.232241
           12.820210             0.469070
            4.390437             0.360455
 s    3 1.00
           11.626358            -0.114961
            2.716280            -0.169118
            0.772218             1.145852
 s    1 1.00
            0.212031             1.000000
 p    3 1.00
           11.626358             0.067580
            2.716280             0.323907
            0.772218             0.740895
 p    1 1.00
            0.212031             1.000000
 d    1 1.00
            0.800000             1.000000

   40 0
 s    6 1.00
         4173.511000             0.001835
          627.457900             0.013995
          142.902100             0.068587
           40.234330             0.232241
           12.820210             0.469070
            4.390437             0.360455
 s    3 1.00
           11.626358            -0.114961
            2.716280            -0.169118
            0.772218             1.145852
 s    1 1.00
            0.212031             1.000000
 p    3 1.00
           11.626358             0.067580
            2.716280             0.323907
            0.772218             0.740895
 p    1 1.00
            0.212031             1.000000
 d    1 1.00
            0.800000             1.000000

[MO]
 Ene=   -14.1842
 Spin= Alpha
 Occup= 1.0
    1   -0.00004
    2   -0.00004
    3   -0.00000
    4    0.00000
    5   -0.00001
    6    0.00001
    7    0.00000
    8    0.00011
    9   -0.00018
   10    0.00002
   11   -0.00005
   12    0.00015
   13    0.00000
   14    0.00001
   15    0.00002
   16   -0.00000
   17   -0.00000
   18   -0.00000
   19    0.00005
   20   -0.00001
   21   -0.00003
   22    0.00000
   23    0.00000
   24    0.00002
   25   -0.99269
   26   -0.03465
   27   -0.00403
   28   -0.00015
   29   -0.00025
   30    0.00116
   31    0.00004
   32    0.00006
   33   -0.00035
   34    0.00822
   35    0.00822
   36    0.00825
   37    0.00000
   38   -0.00000
   39   -0.00001
   40   -0.00027
   41    0.00047
   42   -0.00027
   43    0.00045
   44   -0.00027
   45    0.00043
   46    0.00000
   47    0.00002
   48   -0.00016
   49    0.00000
   50   -0.00001
   51   -0.00001
   52   -0.00001
   53    0.00009
   54   -0.00000
   55    0.00001
   56    0.00001
   57    0.00001
   58    0.00000
   59   -0.00000
   60    0.00001
   61   -0.00000
   62   -0.00001
   63    0.00014
   64    0.00000
   65   -0.00000
   66    0.00001
   67   -0.00002
   68    0.00005
   69   -0.00006
   70   -0.00001
   71   -0.00000
   72   -0.00001
   73   -0.00000
   74    0.00000
   75   -0.00000
   76    0.00000
   77    0.00004
   78    0.00001
   79    0.00003
   80   -0.00000
   81   -0.00002
   82    0.00001
   83   -0.00007
   84    0.00001
   85   -0.00004
   86   -0.00000
   87   -0.00000
   88    0.00004
   89   -0.00000
   90   -0.00000
   91    0.00001
   92    0.00004
   93   -0.00000
   94    0.00000
   95    0.00000
   96   -0.00000
   97   -0.00000
   98    0.00000
   99    0.00000
  100   -0.00000
  101    0.00000
  102    0.00001
  103   -0.00005
  104   -0.00000
  105    0.00000
  106   -0.00001
  107    0.00003
  108   -0.00001
  109    0.00006
  110   -0.00000
  111   -0.00000
  112    0.00001
  113   -0.00000
  114    0.00000
  115   -0.00000
  116    0.00002
  117   -0.00008
  118    0.00001
  119   -0.00004
  120   -0.00001
  121   -0.00003
  122   -0.00000
  123    0.00003
  124    0.00000
  125    0.00002
  126   -0.00000
  127   -0.00001
  128    0.00005
  129   -0.00000
  130   -0.00000
  131    0.00000
  132    0.00001
  133    0.00000
  134    0.00001
  135   -0.00000
  136   -0.00000
  137   -0.00000
  138    0.00000
  139    0.00000
  140   -0.00000
  141   -0.00000
  142   -0.00001
  143    0.00008
  144    0.00000
  145    0.00000
  146    0.00000
  147   -0.00002
  148    0.00000
  149    0.00002
  150   -0.00000
  151   -0.00000
  152   -0.00000
  153   -0.00000
  154    0.00000
  155    0.00000
  156    0.00001
  157   -0.00007
  158   -0.00000
  159   -0.00001
  160   -0.00000
  161   -0.00001
  162    0.00001
  163   -0.00006
  164   -0.00000
  165    0.00001
  166    0.00000
  167    0.00001
  168   -0.00008
  169    0.00000
  170   -0.00000
  171   -0.00000
  172   -0.00002
  173    0.00002
  174   -0.00000
  175    0.00001
  176    0.00001
  177    0.00000
  178    0.00000
  179    0.00000
  180    0.00000
  181   -0.00000
  182   -0.00000
  183    0.00003
  184    0.00000
  185    0.00001
  186   -0.00001
  187   -0.00003
  188   -0.00007
  189    0.00005
  190   -0.00001
  191   -0.00000
  192    0.00000
  193   -0.00000
  194   -0.00000
  195   -0.00000
  196   -0.00000
  197    0.00005
  198   -0.00001
  199    0.00004
  200   -0.00000
  201    0.00001
  202    0.00000
  203   -0.00007
  204    0.00000
  205    0.00003
  206   -0.00000
  207    0.00000
  208    0.00000
  209    0.00000
  210   -0.00000
  211   -0.00000
  212    0.00000
  213   -0.00000
  214   -0.00000
  215   -0.00000
  216   -0.00000
  217   -0.00000
  218    0.00000
  219    0.00000
  220   -0.00000
  221   -0.00000
  222    0.00000
  223    0.00000
  224   -0.00000
  225    0.00000
  226    0.00000
  227    0.00000
  228   -0.00000
  229   -0.00000
  230   -0.00000
  231   -0.00000
  232   -0.00000
  233   -0.00000
  234   -0.00000
  235    0.00000
  236   -0.00000
  237    0.00000
  238    0.00000
  239    0.00000
  240    0.00000
  241    0.00000
  242   -0.00000
  243   -0.00000
  244   -0.00000
  245   -0.00000
  246   -0.00000
  247   -0.00000
  248   -0.00000
  249   -0.00000
  250   -0.00000
  251   -0.00000
  252    0.00000
  253   -0.00000
  254   -0.00000
  255   -0.00000
  256    0.00000
  257    0.00000
  258    0.00000
  259   -0.00000
  260   -0.00000
  261   -0.00000
  262   -0.00000
  263    0.00000
  264    0.00000
  265   -0.00000
  266   -0.00000
  267   -0.00000
  268   -0.00000
  269    0.00000
  270   -0.00000
  271   -0.00000
  272    0.00000
  273    0.00000
  274   -0.00000
  275    0.00000
  276    0.00000
  277    0.00000
  278    0.00000
  279    0.00000
  280   -0.00000
  281    0.00000
  282    0.00000
  283   -0.00000
  284    0.00000
  285    0.00000
  286    0.00000
  287    0.00000
  288   -0.00000
  289   -0.00000
  290    0.00000
  291    0.00000
  292    0.00000
  293    0.00000
  294   -0.00000
  295   -0.00000
  296   -0.00000
  297   -0.00000
  298    0.00000
  299   -0.00000
  300    0.00000
  301    0.00000
  302    0.00000
  303   -0.00000
  304   -0.00000
  305   -0.00000
  306   -0.00000
  307   -0.00000
  308    0.00000
  309    0.00000
  310   -0.00000
 Ene=   -14.1590
 Spin= Alpha
 Occup= 1.0
    1   -0.00000
    2   -0.00000
    3   -0.00000
    4    0.00000
    5   -0.00000
    6   -0.00000
    7   -0.00000
    8   -0.00000
    9   -0.00000
   10    0.00000
   11    0.00000
   12   -0.00000
   13    0.00000
   14   -0.00000
   15    0.00000
   16    0.00000
   17    0.00000
   18   -0.00000
   19    0.00000
   20    0.00000
   21    0.00000
   22   -0.00000
   23   -0.00000
   24    0.00000
   25    0.00000
   26    0.00000
   27   -0.00000
   28    0.00000
   29    0.00000
   30    0.00000
   31    0.00000
   32    0.00000
   33    0.00000
   34    0.00000
   35    0.00000
   36    0.00000
   37   -0.00000
   38   -0.00000
   39   -0.00000
   40   -0.00000
   41    0.00000
   42    0.00000
   43    0.00000
   44   -0.00000
   45    0.00000
   46   -0.00000
   47    0.00000
   48   -0.00000
   49    0.00000
   50    0.00000
   51    0.00000
   52   -0.00000
   53   -0.00000
   54   -0.00000
   55    0.00000
   56   -0.00000
   57    0.00000
   58   -0.00000
   59    0.00000
   60    0.00000
   61    0.00000
   62    0.00000
   63   -0.00000
   64    0.00000
   65   -0.00000
   66   -0.00000
   67    0.00000
   68    0.00000
   69   -0.00000
   70    0.00000
   71   -0.00000
   72    0.00000
   73   -0.00000
   74    0.00000
   75   -0.00000
   76   -0.00000
   77    0.00000
   78    0.00000
   79    0.00000
   80    0.00000
   81    0.00000
   82    0.00000
   83    0.00000
   84   -0.00000
   85    0.00000
   86   -0.00000
   87    0.00000
   88    0.00000
   89   -0.00000
   90    0.00000
   91    0.00000
   92   -0.00000
   93   -0.00000
   94    0.00000
   95   -0.00000
   96   -0.00000
   97   -0.00000
   98   -0.00000
   99   -0.00000
  100    0.00000
  101    0.00000
  102    0.00000
  103    0.00000
  104    0.00000
  105   -0.00000
  106    0.00000
  107   -0.00000
  108    0.00000
  109    0.00000
  110   -0.00000
  111    0.00000
  112    0.00000
  113    0.00000
  114   -0.00000
  115   -0.00000
  116    0.00000
  117   -0.00000
  118   -0.00000
  119    0.00000
  120    0.00000
  121   -0.00000
  122    0.00000
  123    0.00000
  124   -0.00000
  125    0.00000
  126   -0.00000
  127   -0.00000
  128    0.00000
  129    0.00000
  130   -0.00000
  131   -0.00000
  132   -0.00000
  133    0.00000
  134    0.00000
  135    0.00000
  136   -0.00000
  137   -0.00000
  138    0.00000
  139   -0.00000
  140   -0.00000
  141    0.00000
  142    0.00000
  143   -0.00000
  144    0.00000
  145    0.00000
  146    0.00000
  147   -0.00000
  148   -0.00000
  149    0.00000
  150    0.00000
  151   -0.00000
  152    0.00000
  153   -0.00000
  154   -0.00000
  155    0.00000
  156   -0.00000
  157   -0.00000
  158   -0.00000
  159   -0.00000
  160    0.00000
  161   -0.00000
  162    0.00000
  163    0.00000
  164    0.00000
  165    0.00000
  166   -0.00000
  167   -0.00000
  168   -0.00000
  169   -0.00000
  170    0.00000
  171    0.00000
  172   -0.00000
  173    0.00000
  174    0.00000
  175    0.00000
  176    0.00000
  177    0.00000
  178    0.00000
  179    0.00000
  180    0.00000
  181   -0.00000
  182    0.00000
  183   -0.00000
  184    0.00000
  185    0.00000
  186    0.00000
  187   -0.00000
  188    0.00000
  189    0.00000
  190    0.00000
  191    0.00000
  192   -0.00000
  193   -0.00000
  194   -0.00000
  195   -0.00000
  196    0.00000
  197    0.00000
  198   -0.00000
  199    0.00000
  200   -0.00000
  201    0.00000
  202    0.00000
  203    0.00000
  204   -0.00000
  205    0.00000
  206   -0.00003
  207    0.00010
  208    0.00070
  209   -0.00021
  210   -0.00011
  211    0.00015
  212    0.00034
  213    0.00018
  214   -0.00023
  215   -0.00034
  216   -0.00014
  217   -0.00019
  218   -0.00018
  219    0.00023
  220    0.00012
  221   -0.00001
  222   -0.00005
  223   -0.00008
  224   -0.00001
  225   -0.00000
  226    0.00001
  227    0.00016
  228   -0.00018
  229   -0.00018
  230   -0.00001
  231    0.00004
  232   -0.00000
  233   -0.00001
  234   -0.00001
  235    0.00003
  236   -0.00001
  237   -0.00005
  238   -0.00007
  239   -0.00001
  240   -0.00001
  241    0.00000
  242    0.00005
  243    0.00028
  244    0.00004
  245   -0.00001
  246    0.00005
  247   -0.00000
  248   -0.00001
  249   -0.00001
  250    0.00003
  251   -0.00004
  252   -0.00025
  253    0.00172
  254    0.00043
  255    0.00023
  256   -0.00030
  257    0.00160
  258    0.00086
  259   -0.00111
  260    0.00095
  261    0.00025
  262    0.00044
  263    0.00060
  264   -0.00077
  265   -0.00042
  266   -0.99273
  267   -0.03453
  268   -0.00607
  269    0.00160
  270    0.00086
  271   -0.00110
  272    0.00076
  273    0.00040
  274   -0.00052
  275    0.00759
  276    0.00812
  277    0.00797
  278   -0.00045
  279    0.00057
  280    0.00031
  281   -0.00924
  282   -0.00036
  283    0.00029
  284   -0.00001
  285   -0.00003
  286    0.00000
  287    0.00002
  288    0.00010
  289    0.00001
  290    0.00006
  291    0.00005
  292    0.00006
  293   -0.00001
  294    0.00000
  295    0.00000
  296   -0.00325
  297   -0.00015
  298    0.00033
  299   -0.00001
  300    0.00001
  301    0.00001
  302    0.00006
  303   -0.00006
  304   -0.00007
  305    0.00000
  306    0.00002
  307    0.00001
  308   -0.00000
  309    0.00001
  310    0.00000
 Ene=   -14.1590
 Spin= Alpha
 Occup= 1.0
    1   -0.00000
    2   -0.00000
    3    0.00000
    4   -0.00000
    5    0.00000
    6    0.00000
    7    0.00000
    8   -0.00000
    9    0.00000
   10   -0.00000
   11    0.00000
   12    0.00000
   13    0.00000
   14    0.00000
   15    0.00000
   16    0.00000
   17   -0.00000
   18    0.00000
   19   -0.00000
   20   -0.00000
   21   -0.00000
   22    0.00000
   23    0.00000
   24    0.00000